LAMMPS Description

1289 atoms
1300 bonds
1862 angles
4484 dihedrals
0 impropers

16 atom types
62 bond types
140 angle types
163 dihedral types
0 improper types

-7.118988 29.2502 xlo xhi
-0.265 30.509627 ylo yhi
7.0969267 37.4841356 zlo zhi

Masses

1 14.01
2 1.008
3 12.01
4 1.008
5 1.008
6 12.01
7 16.0
8 1.008
9 16.0
10 1.008
11 1.008
12 1.008
13 1.008
14 32.06
15 16.0
16 1.008

Pair Coeffs

1 0.169999999918 3.24999852403 0.169999999918 3.24999852403
2 0.0157000000042 1.06907846172 0.0157000000042 1.06907846172
3 0.109399999916 3.39966950845 0.109399999916 3.39966950845
4 0.0157000000627 1.95997717901 0.0157000000627 1.95997717901
5 0.0157000000262 2.64953278726 0.0157000000262 2.64953278726
6 0.0860000001284 3.39966950794 0.0860000001284 3.39966950794
7 0.209999999842 2.95992190164 0.209999999842 2.95992190164
8 0.0157000000985 2.47135304264 0.0157000000985 2.47135304264
9 0.210400000249 3.06647338746 0.210400000249 3.06647338746
10 0 0.0 0 0.0
11 0.0150000000642 2.59964245874 0.0150000000642 2.59964245874
12 0.0150000000333 2.42146271546 0.0150000000333 2.42146271546
13 0.0149999999915 2.51055258758 0.0149999999915 2.51055258758
14 0.25 3.56359487256 0.25 3.56359487256
15 0.151999999721 3.15075240713 0.151999999721 3.15075240713
16 0 0.0 0 0.0

Bond Coeffs

1 570.0 1.229
2 490.0 1.335
3 340.0 1.09
4 340.0 1.09
5 310.0 1.526
6 340.0 1.09
7 310.0 1.526
8 340.0 1.09
9 310.0 1.526
10 317.0 1.522
11 434.0 1.01
12 367.0 1.471
13 656.0 1.25
14 317.0 1.522
15 310.0 1.526
16 340.0 1.09
17 434.0 1.01
18 337.0 1.449
19 553.0 0.96
20 340.0 1.09
21 320.0 1.41
22 310.0 1.526
23 367.0 1.08
24 469.0 1.4
25 317.0 1.51
26 310.0 1.526
27 310.0 1.526
28 340.0 1.09
29 337.0 1.449
30 317.0 1.522
31 434.0 1.01
32 481.0 1.34
33 340.0 1.09
34 337.0 1.463
35 340.0 1.09
36 310.0 1.526
37 310.0 1.526
38 340.0 1.09
39 320.0 1.41
40 340.0 1.09
41 367.0 1.471
42 367.0 1.08
43 434.0 1.01
44 427.0 1.381
45 367.0 1.08
46 477.0 1.343
47 488.0 1.335
48 410.0 1.394
49 518.0 1.371
50 317.0 1.504
51 227.0 1.81
52 227.0 1.81
53 469.0 1.404
54 469.0 1.4
55 447.0 1.419
56 428.0 1.38
57 546.0 1.352
58 388.0 1.459
59 317.0 1.495
60 656.0 1.25
61 553.0 1.5136
62 553.0 0.9572

Angle Coeffs

1 80.0 122.900052672
2 50.0 120.000051429
3 50.0 121.900052243
4 35.0 109.500046929
5 40.0 109.500046929
6 50.0 109.500046929
7 50.0 109.500046929
8 50.0 109.500046929
9 35.0 109.500046929
10 63.0 111.100047615
11 50.0 109.500046929
12 40.0 109.500046929
13 50.0 109.500046929
14 50.0 109.500046929
15 50.0 109.500046929
16 40.0 109.500046929
17 80.0 120.400051601
18 70.0 116.600049972
19 50.0 109.500046929
20 35.0 109.500046929
21 50.0 109.500046929
22 80.0 111.200047658
23 80.0 111.200047658
24 80.0 126.000054001
25 50.0 109.500046929
26 70.0 117.000050143
27 50.0 109.500046929
28 63.0 111.100047615
29 50.0 109.500046929
30 50.0 109.500046929
31 40.0 109.500046929
32 50.0 118.040050474
33 50.0 109.500046929
34 80.0 109.700047015
35 63.0 110.100047186
36 50.0 109.500046929
37 50.0 109.500046929
38 50.0 109.500046929
39 63.0 111.100047615
40 55.0 108.5000465
41 50.0 109.500046929
42 50.0 109.500046929
43 40.0 109.500046929
44 50.0 109.500046929
45 80.0 109.700047015
46 50.0 121.900052243
47 50.0 120.000051429
48 63.0 120.000051429
49 50.0 109.500046929
50 63.0 111.100047615
51 70.0 120.000051429
52 50.0 109.500046929
53 50.0 109.500046929
54 63.0 114.000048858
55 80.0 109.700047015
56 50.0 109.500046929
57 40.0 109.500046929
58 50.0 109.500046929
59 35.0 109.500046929
60 50.0 118.000050572
61 40.0 109.500046929
62 50.0 109.500046929
63 80.0 109.700047015
64 63.0 111.100047615
65 50.0 109.500046929
66 35.0 120.000051429
67 50.0 109.500046929
68 80.0 120.400051601
69 70.0 116.600049972
70 63.0 111.100047615
71 35.0 120.000051429
72 70.0 120.000051429
73 50.0 120.000051429
74 50.0 109.500046929
75 35.0 109.500046929
76 50.0 118.400050743
77 50.0 123.200052801
78 50.0 109.500046929
79 35.0 109.500046929
80 50.0 109.500046929
81 80.0 111.200047658
82 63.0 111.100047615
83 40.0 109.500046929
84 50.0 109.500046929
85 50.0 109.500046929
86 40.0 109.500046929
87 80.0 109.700047015
88 35.0 109.500046929
89 50.0 109.500046929
90 35.0 109.500046929
91 55.0 108.5000465
92 50.0 109.500046929
93 50.0 109.500046929
94 50.0 109.500046929
95 35.0 109.500046929
96 50.0 109.500046929
97 50.0 109.500046929
98 80.0 111.200047658
99 50.0 120.000051429
100 50.0 120.000051429
101 50.0 120.000051429
102 50.0 120.000051429
103 70.0 120.000051429
104 70.0 120.000051429
105 50.0 120.000051429
106 70.0 120.000051429
107 70.0 117.000050143
108 70.0 120.000051429
109 50.0 120.000051429
110 50.0 109.500046929
111 70.0 120.000051429
112 70.0 120.000051429
113 63.0 113.100048472
114 50.0 109.500046929
115 50.0 109.500046929
116 62.0 98.9000423861
117 50.0 109.500046929
118 50.0 114.700049158
119 50.0 120.000051429
120 63.0 120.000051429
121 63.0 122.700052586
122 50.0 120.000051429
123 63.0 120.000051429
124 63.0 116.2000498
125 50.0 123.100052758
126 70.0 132.800056915
127 70.0 104.400044743
128 63.0 106.4000456
129 70.0 111.600047829
130 50.0 120.000051429
131 70.0 108.700046586
132 63.0 108.800046629
133 63.0 134.900057815
134 50.0 109.500046929
135 70.0 125.000053572
136 70.0 128.600055115
137 63.0 115.600049543
138 63.0 111.100047615
139 80.0 126.000054001
140 70.0 117.000050143

Dihedral Coeffs

1 2.0 1 0 0.0
2 2.5 2 180 0.0
3 0.0 2 0 0.0
4 1.8 2 0 0.0
5 0.8 3 0 0.0
6 0.0 4 0 0.0
7 0.0 1 0 0.0
8 0.27 2 0 0.0
9 0.42 3 0 0.0
10 0.16 3 0 0.0
11 0.15 3 0 0.0
12 0.706 1 0 0.0
13 0.62 2 180 0.0
14 0.144 3 0 0.0
15 0.19 4 0 0.0
16 0.155555556 3 0 0.0
17 0.2 1 0 0.0
18 0.2 2 0 0.0
19 0.4 3 0 0.0
20 0.379 1 0 0.0
21 0.027 2 180 0.0
22 0.142 3 0 0.0
23 0.179 4 0 0.0
24 0.098 1 0 0.0
25 0.259 2 180 0.0
26 0.073 4 0 0.0
27 0.421 1 180 0.0
28 0.393 2 180 0.0
29 0.145 4 0 0.0
30 0.39 2 180 0.0
31 0.064 4 0 0.0
32 0.8 1 0 0.0
33 0.08 3 180 0.0
34 1.367 1 180 0.0
35 0.222 2 180 0.0
36 0.608 3 180 0.0
37 0.056 4 180 0.0
38 0.1 1 180 0.0
39 0.184 2 180 0.0
40 0.078 4 0 0.0
41 0.45 1 180 0.0
42 1.58 2 180 0.0
43 0.55 3 180 0.0
44 0.697 1 180 0.0
45 0.119 2 180 0.0
46 0.315 3 0 0.0
47 0.156 4 0 0.0
48 0.25 1 0 0.0
49 0.0 3 0 0.0
50 0.406 1 180 0.0
51 0.289 2 180 0.0
52 0.148 3 0 0.0
53 0.112 4 0 0.0
54 0.643 1 0 0.0
55 0.079 2 180 0.0
56 0.236 3 0 0.0
57 0.048 4 0 0.0
58 0.166666667 3 0 0.0
59 0.006 1 180 0.0
60 0.251 2 0 0.0
61 0.013 4 0 0.0
62 0.337 1 0 0.0
63 0.216 2 180 0.0
64 0.001 4 180 0.0
65 0.674 1 0 0.0
66 0.006 2 0 0.0
67 0.095 4 0 0.0
68 2.0 2 0 0.0
69 3.625 2 180 0.0
70 0.055 1 0 0.0
71 0.469 2 180 0.0
72 0.192 3 0 0.0
73 0.012 4 180 0.0
74 0.069 2 180 0.0
75 0.048 4 180 0.0
76 0.012 1 180 0.0
77 0.29 2 180 0.0
78 0.007 4 180 0.0
79 0.2 1 180 0.0
80 0.25 2 180 0.0
81 0.18 3 0 0.0
82 0.424 1 0 0.0
83 0.459 2 180 0.0
84 0.058 3 0 0.0
85 0.154 4 0 0.0
86 0.769 2 180 0.0
87 0.031 4 180 0.0
88 2.154 1 180 0.0
89 0.647 2 180 0.0
90 0.089 4 0 0.0
91 1.046 1 0 0.0
92 0.303 2 180 0.0
93 0.033 3 0 0.0
94 0.107 4 0 0.0
95 0.828 1 180 0.0
96 0.485 2 180 0.0
97 0.301 3 180 0.0
98 0.008 4 0 0.0
99 0.688 1 180 0.0
100 0.297 2 180 0.0
101 0.059 4 0 0.0
102 2.4 2 180 0.0
103 0.661 1 180 0.0
104 0.218 2 180 0.0
105 0.401 3 0 0.0
106 0.129 4 0 0.0
107 0.211 1 0 0.0
108 0.444 2 0 0.0
109 0.267 3 0 0.0
110 0.007 4 0 0.0
111 0.666 1 0 0.0
112 0.246 2 180 0.0
113 0.16 4 0 0.0
114 1.5 2 180 0.0
115 2.325 2 180 0.0
116 5.375 2 180 0.0
117 0.143 1 180 0.0
118 0.244 2 180 0.0
119 0.219 3 0 0.0
120 0.025 4 0 0.0
121 5.0 2 180 0.0
122 0.69 1 0 0.0
123 0.204 2 0 0.0
124 0.74 3 0 0.0
125 0.047 4 180 0.0
126 0.306 1 180 0.0
127 0.221 2 180 0.0
128 0.333333333 3 0 0.0
129 0.247 1 180 0.0
130 0.442 2 0 0.0
131 0.414 3 0 0.0
132 0.057 4 0 0.0
133 0.417 1 0 0.0
134 0.245 2 0 0.0
135 0.016 3 0 0.0
136 0.028 4 0 0.0
137 3.0 2 180 0.0
138 3.5 2 180 0.0
139 1.525 2 180 0.0
140 6.525 2 180 0.0
141 1.675 2 180 0.0
142 0.017 1 180 0.0
143 0.353 2 180 0.0
144 0.234 3 0 0.0
145 0.074 4 0 0.0
146 0.365 1 0 0.0
147 0.408 2 0 0.0
148 0.819 3 0 0.0
149 0.095 4 180 0.0
150 0.079 1 0 0.0
151 0.313 2 180 0.0
152 0.031 4 0 0.0
153 0.609 1 180 0.0
154 0.845 2 180 0.0
155 0.085 3 180 0.0
156 0.042 4 0 0.0
157 0.196 1 180 0.0
158 0.083 2 0 0.0
159 0.412 3 180 0.0
160 0.138 4 0 0.0
161 10.5 2 180 0.0
162 1.1 2 180 0.0
163 1.0 2 180 0.0

Atoms

1 0 1 0.101 10.367 29.903 18.753 0 0 0
2 0 2 0.2148 9.6081971 30.4339133 19.1560511 0 0 0
3 0 2 0.2148 10.3127893 29.9718557 17.7468089 0 0 0
4 0 2 0.2148 11.2230581 30.1465171 19.2304553 0 0 0
5 0 3 0.0104 10.139 28.458 19.063 0 0 0
6 0 4 0.1053 10.0578815 27.8839437 18.1399733 0 0 0
7 0 3 -0.0244 11.32 27.909 19.881 0 0 0
8 0 5 0.0256 12.161578 28.2321079 19.2682627 0 0 0
9 0 5 0.0256 11.3068406 28.4799489 20.8094095 0 0 0
10 0 3 0.3421 11.465 26.413 20.202 0 0 0
11 0 5 -0.038 12.4447601 26.2387629 20.646761 0 0 0
12 0 3 -0.4106 10.381 25.97 21.174 0 0 0
13 0 5 0.098 9.4008932 26.1435106 20.7297213 0 0 0
14 0 5 0.098 10.4983347 24.9082035 21.3906138 0 0 0
15 0 5 0.098 10.4662804 26.5405484 22.0988255 0 0 0
16 0 3 -0.4104 11.411 25.6 18.911 0 0 0
17 0 5 0.098 12.2236515 25.9077186 18.252968 0 0 0
18 0 5 0.098 11.5142151 24.5401743 19.143846 0 0 0
19 0 5 0.098 10.4565229 25.7708032 18.4131056 0 0 0
20 0 6 0.612300000549 8.825 28.264 19.831 0 0 0
21 0 7 -0.571300000549 8.609 28.856 20.898 0 0 0
22 1 1 -0.5163 7.938 27.442 19.282 0 0 0
23 1 2 0.2936 8.112188 27.0129203 18.3844208 0 0 0
24 1 3 0.0397 6.67 27.173 19.94 0 0 0
25 1 8 0.1105 6.4576124 27.949937 20.6744111 0 0 0
26 1 3 0.056 5.536 27.153 18.905 0 0 0
27 1 5 -0.0173 5.7610083 26.360864 18.1908634 0 0 0
28 1 5 -0.0173 4.6149949 26.9120552 19.4358438 0 0 0
29 1 3 0.0136 5.362 28.483 18.156 0 0 0
30 1 5 -0.0425 5.0252173 29.2298095 18.874995 0 0 0
31 1 5 -0.0425 6.3434803 28.7638404 17.7739997 0 0 0
32 1 6 0.805399998902 4.373 28.407 17.004 0 0 0
33 1 7 -0.818799997805 3.201 28.052 17.242 0 0 0
34 1 7 -0.818799997805 4.769 28.715 15.854 0 0 0
35 1 6 0.5366 6.745 25.834 20.688 0 0 0
36 1 7 -0.581900001646 7.26 24.832 20.172 0 0 0
37 2 1 -0.4157 6.262 25.826 21.924 0 0 0
38 2 2 0.2719 5.8859985 26.666739 22.3385842 0 0 0
39 2 3 -0.0389 6.251 24.597 22.717 0 0 0
40 2 8 0.1007 6.8345393 23.8314885 22.2055576 0 0 0
41 2 3 0.3654 6.835 24.805 24.111 0 0 0
42 2 8 0.0043 6.7086407 23.8891447 24.6883584 0 0 0
43 2 3 -0.2438 8.31 25.148 24.024 0 0 0
44 2 5 0.0642 8.4371258 26.0640615 23.4471378 0 0 0
45 2 5 0.0642 8.7096883 25.292861 25.0276751 0 0 0
46 2 5 0.0642 8.8446185 24.3339054 23.5345782 0 0 0
47 2 9 -0.676099998354 6.134 25.868 24.757 0 0 0
48 2 10 0.4102 6.497263 26.0036624 25.6352005 0 0 0
49 2 6 0.597300000549 4.81 24.135 22.868 0 0 0
50 2 7 -0.567900001646 3.882 24.944 22.86 0 0 0
51 3 1 -0.4157 4.627 22.826 23.001 0 0 0
52 3 2 0.2719 5.4239262 22.2055117 22.9994908 0 0 0
53 3 3 -0.0024 3.301 22.245 23.141 0 0 0
54 3 8 0.0978 2.5904904 23.0037029 23.4690933 0 0 0
55 3 3 -0.0343 2.836 21.69 21.793 0 0 0
56 3 5 0.0295 3.6122523 21.0091682 21.4437154 0 0 0
57 3 5 0.0295 1.8842852 21.1608645 21.8415253 0 0 0
58 3 6 0.0118 2.686 22.748 20.738 0 0 0
59 3 6 -0.1256 3.776 23.144 19.973 0 0 0
60 3 11 0.133 4.7281356 22.6271827 20.0931566 0 0 0
61 3 6 -0.1704 3.661 24.194 19.056 0 0 0
62 3 11 0.143 4.5218755 24.4995216 18.4613148 0 0 0
63 3 6 -0.1072 2.441 24.85 18.904 0 0 0
64 3 11 0.1297 2.3487737 25.6700563 18.1918891 0 0 0
65 3 6 -0.1704 1.339 24.458 19.662 0 0 0
66 3 11 0.143 0.3814516 24.9657252 19.5461713 0 0 0
67 3 6 -0.1256 1.467 23.407 20.575 0 0 0
68 3 11 0.133 0.6086692 23.0938449 21.1693922 0 0 0
69 3 6 0.597300000549 3.342 21.129 24.166 0 0 0
70 3 7 -0.567900001646 4.404 20.554 24.413 0 0 0
71 4 1 -0.2548 2.195 20.816 24.794 0 0 0
72 4 3 0.0192 0.893 21.496 24.682 0 0 0
73 4 8 0.0391 0.349422 21.1242394 23.813428 0 0 0
74 4 8 0.0391 1.0391313 22.5718299 24.5853842 0 0 0
75 4 3 0.0189 0.234 21.122 25.978 0 0 0
76 4 5 0.0213 -0.8505723 21.1829188 25.8880507 0 0 0
77 4 5 0.0213 0.5688803 21.7783279 26.7812374 0 0 0
78 4 3 -0.007 0.686 19.71 26.216 0 0 0
79 4 5 0.0253 0.1199255 19.0616843 25.5471611 0 0 0
80 4 5 0.0253 0.6020643 19.3393435 27.2376008 0 0 0
81 4 3 -0.0266 2.151 19.74 25.792 0 0 0
82 4 8 0.0641 2.8356578 19.9799578 26.6054877 0 0 0
83 4 6 0.589600001098 2.559 18.416 25.16 0 0 0
84 4 7 -0.574799997805 2.32 18.174 23.964 0 0 0
85 5 1 -0.4157 3.177 17.567 25.974 0 0 0
86 5 2 0.2719 3.3841392 17.8404635 26.9239528 0 0 0
87 5 3 -0.0518 3.592 16.251 25.532 0 0 0
88 5 8 0.0922 4.4025354 16.3318043 24.8077057 0 0 0
89 5 3 -0.1102 4.09 15.446 26.736 0 0 0
90 5 5 0.0457 4.9974869 15.9563527 27.0586559 0 0 0
91 5 5 0.0457 3.3406507 15.5044929 27.5254012 0 0 0
92 5 3 0.3531 4.407 13.981 26.443 0 0 0
93 5 5 -0.0361 3.5377945 13.512059 25.9818309 0 0 0
94 5 3 -0.4121 5.598 13.881 25.499 0 0 0
95 5 5 0.1 6.4677684 14.3493506 25.9597053 0 0 0
96 5 5 0.1 5.8151121 12.8321149 25.2970019 0 0 0
97 5 5 0.1 5.364706 14.3898659 24.5637301 0 0 0
98 5 3 -0.4121 4.685 13.244 27.755 0 0 0
99 5 5 0.1 3.8071411 13.3028068 28.3984322 0 0 0
100 5 5 0.1 4.9110497 12.1987177 27.5443159 0 0 0
101 5 5 0.1 5.5351048 13.7047775 28.2580953 0 0 0
102 5 6 0.597300000549 2.453 15.499 24.859 0 0 0
103 5 7 -0.567900001646 2.63 14.941 23.782 0 0 0
104 6 1 -0.5163 1.271 15.511 25.47 0 0 0
105 6 2 0.2936 1.1313207 15.9674311 26.3600897 0 0 0
106 6 3 0.0381 0.163 14.754 24.9 0 0 0
107 6 8 0.088 0.4557765 13.7143264 24.7535077 0 0 0
108 6 3 -0.0303 -1.038 14.795 25.848 0 0 0
109 6 5 -0.0122 -0.6813189 14.7063596 26.874168 0 0 0
110 6 5 -0.0122 -1.5154679 15.7654319 25.7124038 0 0 0
111 6 6 0.799399998902 -2.043 13.693 25.565 0 0 0
112 6 7 -0.801399998902 -1.635 12.534 25.462 0 0 0
113 6 7 -0.801399998902 -3.255 13.989 25.469 0 0 0
114 6 6 0.5366 -0.227 15.218 23.5 0 0 0
115 6 7 -0.581900001646 -0.656 14.421 22.674 0 0 0
116 7 1 -0.4157 -0.084 16.513 23.246 0 0 0
117 7 2 0.2719 0.2209852 17.1507875 23.9673255 0 0 0
118 7 3 -0.0875 -0.395 17.055 21.933 0 0 0
119 7 8 0.0969 -1.3610169 16.695253 21.5787506 0 0 0
120 7 3 0.2985 -0.437 18.589 22.0 0 0 0
121 7 5 -0.0297 0.4627249 18.9481836 22.4995814 0 0 0
122 7 3 -0.3192 -0.508 19.176 20.604 0 0 0
123 7 5 0.0791 -1.4077669 18.8176113 20.103922 0 0 0
124 7 5 0.0791 -0.5371536 20.2637453 20.6677231 0 0 0
125 7 5 0.0791 0.3698021 18.869278 20.035241 0 0 0
126 7 3 -0.3192 -1.65 19.012 22.812 0 0 0
127 7 5 0.0791 -1.5752652 18.6009573 23.8187575 0 0 0
128 7 5 0.0791 -1.6901141 20.0999054 22.8663353 0 0 0
129 7 5 0.0791 -2.555852 18.6389509 22.334122 0 0 0
130 7 6 0.597300000549 0.644 16.606 20.902 0 0 0
131 7 7 -0.567900001646 0.305 16.224 19.783 0 0 0
132 8 1 -0.4157 1.918 16.629 21.28 0 0 0
133 8 2 0.2719 2.1922349 16.9725172 22.1893352 0 0 0
134 8 3 -0.0518 2.964 16.231 20.348 0 0 0
135 8 8 0.0922 2.8257847 16.7362219 19.3920991 0 0 0
136 8 3 -0.1102 4.342 16.615 20.912 0 0 0
137 8 5 0.0457 4.3750384 16.2228358 21.9284718 0 0 0
138 8 5 0.0457 5.1025816 16.1207824 20.307546 0 0 0
139 8 3 0.3531 4.613 18.134 20.938 0 0 0
140 8 5 -0.0361 3.7969914 18.6349465 21.4588487 0 0 0
141 8 3 -0.4121 5.914 18.416 21.652 0 0 0
142 8 5 0.1 6.730599 17.9157271 21.1314311 0 0 0
143 8 5 0.1 6.0963654 19.4905567 21.6650975 0 0 0
144 8 5 0.1 5.855129 18.0454862 22.6754032 0 0 0
145 8 3 -0.4121 4.677 18.68 19.52 0 0 0
146 8 5 0.1 3.7283198 18.4955635 19.0159282 0 0 0
147 8 5 0.1 4.8686585 19.7525587 19.5514017 0 0 0
148 8 5 0.1 5.4799562 18.1837587 18.9749267 0 0 0
149 8 6 0.597300000549 2.899 14.741 20.03 0 0 0
150 8 7 -0.567900001646 3.188 14.326 18.909 0 0 0
151 9 1 -0.4157 2.494 13.932 21.003 0 0 0
152 9 2 0.2719 2.253189 14.2946812 21.9143571 0 0 0
153 9 3 -0.0875 2.396 12.499 20.784 0 0 0
154 9 8 0.0969 3.2180644 12.1423119 20.1634495 0 0 0
155 9 3 0.2985 2.428 11.736 22.137 0 0 0
156 9 5 -0.0297 1.6824627 12.1669591 22.8052422 0 0 0
157 9 3 -0.3192 2.123 10.255 21.922 0 0 0
158 9 5 0.0791 2.868436 9.8232094 21.2541804 0 0 0
159 9 5 0.0791 2.149468 9.7352861 22.8797564 0 0 0
160 9 5 0.0791 1.1331113 10.1480352 21.4784004 0 0 0
161 9 3 -0.3192 3.783 11.898 22.778 0 0 0
162 9 5 0.0791 3.9778112 12.9557991 22.9546682 0 0 0
163 9 5 0.0791 3.8030627 11.3619666 23.7268758 0 0 0
164 9 5 0.0791 4.549129 11.4935222 22.1165283 0 0 0
165 9 6 0.597300000549 1.118 12.099 20.063 0 0 0
166 9 7 -0.567900001646 1.143 11.292 19.138 0 0 0
167 10 1 -0.4157 0.005 12.693 20.478 0 0 0
168 10 2 0.2719 0.0308077 13.3619308 21.2342836 0 0 0
169 10 3 0.0143 -1.287 12.298 19.954 0 0 0
170 10 8 0.1048 -1.2038494 11.4294012 19.3007609 0 0 0
171 10 3 -0.2041 -2.161 11.928 21.148 0 0 0
172 10 5 0.0797 -2.229545 12.7668244 21.8406575 0 0 0
173 10 5 0.0797 -3.1563381 11.6791369 20.7799384 0 0 0
174 10 6 0.713 -1.609 10.736 21.888 0 0 0
175 10 7 -0.593099998354 -1.493 9.655 21.309 0 0 0
176 10 1 -0.919099998354 -1.243 10.923 23.154 0 0 0
177 10 2 0.4196 -0.8679641 10.1515822 23.6872564 0 0 0
178 10 2 0.4196 -1.3419936 11.8354561 23.5755743 0 0 0
179 10 6 0.597300000549 -2.012 13.256 19.026 0 0 0
180 10 7 -0.567900001646 -3.129 13.686 19.296 0 0 0
181 11 1 -0.4157 -1.356 13.589 17.927 0 0 0
182 11 2 0.2719 -0.4308802 13.2234487 17.7520004 0 0 0
183 11 3 -0.0389 -1.944 14.476 16.939 0 0 0
184 11 8 0.1007 -3.0183472 14.5219721 17.1172239 0 0 0
185 11 3 0.3654 -1.369 15.899 17.033 0 0 0
186 11 8 0.0043 -0.2820135 15.8481708 16.9699363 0 0 0
187 11 3 -0.2438 -1.9 16.758 15.905 0 0 0
188 11 5 0.0642 -2.9869681 16.809683 15.9676804 0 0 0
189 11 5 0.0642 -1.4837868 17.7621902 15.9854227 0 0 0
190 11 5 0.0642 -1.6120797 16.3214353 14.9486456 0 0 0
191 11 9 -0.676099998354 -1.764 16.498 18.269 0 0 0
192 11 10 0.4102 -1.4032408 17.385937 18.3239632 0 0 0
193 11 6 0.597300000549 -1.63 13.911 15.57 0 0 0
194 11 7 -0.567900001646 -0.526 13.421 15.346 0 0 0
195 12 1 -0.4157 -2.616 13.954 14.678 0 0 0
196 12 2 0.2719 -3.5173563 14.3222882 14.9463653 0 0 0
197 12 3 0.0337 -2.442 13.478 13.306 0 0 0
198 12 8 0.0823 -2.0524 12.4609397 13.2624174 0 0 0
199 12 3 -0.1825 -3.764 13.523 12.563 0 0 0
200 12 5 0.0603 -4.162252 14.5372793 12.5900711 0 0 0
201 12 5 0.0603 -3.6095722 13.2213839 11.5270077 0 0 0
202 12 5 0.0603 -4.4713183 12.8427141 13.0373535 0 0 0
203 12 6 0.597300000549 -1.427 14.388 12.626 0 0 0
204 12 7 -0.567900001646 -1.377 15.59 12.903 0 0 0
205 13 1 -0.4157 -0.613 13.803 11.752 0 0 0
206 13 2 0.2719 -0.671587 12.8037573 11.6171635 0 0 0
207 13 3 0.0337 0.422 14.542 11.026 0 0 0
208 13 8 0.0823 1.1919798 14.8029438 11.7520431 0 0 0
209 13 3 -0.1825 1.043 13.637 9.958 0 0 0
210 13 5 0.0603 0.2862953 13.3745524 9.2186629 0 0 0
211 13 5 0.0603 1.8625353 14.1623503 9.4676235 0 0 0
212 13 5 0.0603 1.4227947 12.729046 10.4264813 0 0 0
213 13 6 0.597300000549 -0.069 15.839 10.38 0 0 0
214 13 7 -0.567900001646 0.571 16.887 10.501 0 0 0
215 14 1 -0.5163 -1.197 15.769 9.684 0 0 0
216 14 2 0.2936 -1.6831378 14.8911825 9.5690831 0 0 0
217 14 3 0.0397 -1.738 16.951 9.022 0 0 0
218 14 8 0.1105 -0.9548722 17.4426619 8.4448703 0 0 0
219 14 3 0.056 -2.873 16.559 8.072 0 0 0
220 14 5 -0.0173 -3.5431173 17.4159657 8.0037962 0 0 0
221 14 5 -0.0173 -2.423345 16.3715365 7.0969267 0 0 0
222 14 3 0.0136 -3.657 15.339 8.509 0 0 0
223 14 5 -0.0425 -3.861491 15.4314699 9.5756459 0 0 0
224 14 5 -0.0425 -4.5981556 15.3194029 7.9595081 0 0 0
225 14 6 0.805399998902 -2.893 14.052 8.25 0 0 0
226 14 7 -0.818799997805 -2.422 13.879 7.101 0 0 0
227 14 7 -0.818799997805 -2.765 13.22 9.177 0 0 0
228 14 6 0.5366 -2.245 17.984 10.01 0 0 0
229 14 7 -0.581900001646 -2.315 19.17 9.692 0 0 0
230 15 1 -0.5163 -2.581 17.525 11.213 0 0 0
231 15 2 0.2936 -2.4783645 16.5383177 11.4027981 0 0 0
232 15 3 0.0381 -3.113 18.379 12.266 0 0 0
233 15 8 0.088 -3.6597042 19.2156717 11.8310354 0 0 0
234 15 3 -0.0303 -4.071 17.575 13.15 0 0 0
235 15 5 -0.0122 -3.5510316 16.6823225 13.4976477 0 0 0
236 15 5 -0.0122 -4.3232143 18.2036742 14.0039653 0 0 0
237 15 6 0.799399998902 -5.343 17.17 12.427 0 0 0
238 15 7 -0.801399998902 -6.101 16.351 12.991 0 0 0
239 15 7 -0.801399998902 -5.593 17.676 11.312 0 0 0
240 15 6 0.5366 -2.037 18.979 13.157 0 0 0
241 15 7 -0.581900001646 -2.338 19.793 14.024 0 0 0
242 16 1 -0.4157 -0.786 18.578 12.954 0 0 0
243 16 2 0.2719 -0.5597163 17.8999019 12.240503 0 0 0
244 16 3 -0.0518 0.293 19.088 13.789 0 0 0
245 16 8 0.0922 0.091971 18.8647286 14.8367769 0 0 0
246 16 3 -0.1102 1.62 18.428 13.393 0 0 0
247 16 5 0.0457 1.3610401 17.3931139 13.1692818 0 0 0
248 16 5 0.0457 1.9332517 18.929679 12.4774173 0 0 0
249 16 3 0.3531 2.764 18.459 14.408 0 0 0
250 16 5 -0.0361 2.9670366 19.4933812 14.6853672 0 0 0
251 16 3 -0.4121 2.384 17.659 15.661 0 0 0
252 16 5 0.1 2.1812541 16.6243362 15.3844791 0 0 0
253 16 5 0.1 3.2067775 17.6890921 16.3753055 0 0 0
254 16 5 0.1 1.4936418 18.0944659 16.1145771 0 0 0
255 16 3 -0.4121 4.009 17.853 13.767 0 0 0
256 16 5 0.1 4.2829379 18.432321 12.8852718 0 0 0
257 16 5 0.1 4.8313977 17.8699744 14.4821749 0 0 0
258 16 5 0.1 3.8033169 16.8231822 13.4749917 0 0 0
259 16 6 0.597300000549 0.416 20.605 13.661 0 0 0
260 16 7 -0.567900001646 0.281 21.149 12.568 0 0 0
261 17 1 -0.2548 0.645 21.316 14.779 0 0 0
262 17 3 0.0192 0.771 20.822 16.165 0 0 0
263 17 8 0.0391 1.7632145 20.3976659 16.3184638 0 0 0
264 17 8 0.0391 0.0165047 20.0590049 16.3565055 0 0 0
265 17 3 0.0189 0.543 22.076 16.98 0 0 0
266 17 5 0.0213 1.013737 21.9945802 17.9597329 0 0 0
267 17 5 0.0213 -0.5222413 22.270678 17.1043495 0 0 0
268 17 3 -0.007 1.193 23.151 16.144 0 0 0
269 17 5 0.0253 2.2679248 23.0183747 16.2666627 0 0 0
270 17 5 0.0253 0.9300598 24.189208 16.3466975 0 0 0
271 17 3 -0.0266 0.783 22.778 14.721 0 0 0
272 17 8 0.0641 -0.1555861 23.2306175 14.401169 0 0 0
273 17 6 0.589600001098 1.88 23.116 13.713 0 0 0
274 17 7 -0.574799997805 2.908 22.432 13.667 0 0 0
275 18 1 -0.3479 1.673 24.182 12.941 0 0 0
276 18 2 0.2747 0.8091984 24.7003518 13.0135083 0 0 0
277 18 3 -0.2637 2.636 24.582 11.921 0 0 0
278 18 8 0.156 2.7597279 23.7805899 11.1926234 0 0 0
279 18 3 -0.0007 2.143 25.842 11.187 0 0 0
280 18 5 0.0327 2.7173483 25.909391 10.263051 0 0 0
281 18 5 0.0327 1.0925338 25.6736787 10.9497476 0 0 0
282 18 3 0.039 2.283 27.126 11.959 0 0 0
283 18 5 0.0285 1.6684809 27.0686569 12.8574314 0 0 0
284 18 5 0.0285 3.3274116 27.2580312 12.2416205 0 0 0
285 18 3 0.0486 1.831 28.315 11.107 0 0 0
286 18 8 0.0687 0.787471 28.1629809 10.831253 0 0 0
287 18 8 0.0687 1.9195073 29.2207689 11.7068738 0 0 0
288 18 1 -0.5295 2.62 28.483 9.884 0 0 0
289 18 2 0.3456 2.2972198 27.9984366 9.0587057 0 0 0
290 18 6 0.807600001098 3.731 29.212 9.799 0 0 0
291 18 1 -0.862699999451 4.199 29.848 10.876 0 0 0
292 18 2 0.4478 3.707667 29.7744097 11.7553614 0 0 0
293 18 2 0.4478 5.0421354 30.3996844 10.8062388 0 0 0
294 18 1 -0.862699999451 4.362 29.319 8.637 0 0 0
295 18 2 0.4478 3.9967828 28.8470145 7.8221711 0 0 0
296 18 2 0.4478 5.2047212 29.8719548 8.5724958 0 0 0
297 18 6 0.734099998354 4.041 24.819 12.456 0 0 0
298 18 7 -0.589399998902 5.017 24.56 11.746 0 0 0
299 19 1 -0.4157 4.145 25.274 13.706 0 0 0
300 19 2 0.2719 3.3131995 25.4192334 14.2601792 0 0 0
301 19 3 -0.0252 5.432 25.572 14.306 0 0 0
302 19 8 0.0698 6.0088356 26.0671514 13.5248566 0 0 0
303 19 8 0.0698 5.2218572 26.281183 15.1066241 0 0 0
304 19 6 0.597300000549 6.248 24.419 14.868 0 0 0
305 19 7 -0.567900001646 7.296 24.664 15.461 0 0 0
306 20 1 -0.4157 5.789 23.189 14.667 0 0 0
307 20 2 0.2719 4.9234302 23.0474508 14.1661487 0 0 0
308 20 3 -0.0875 6.506 22.019 15.149 0 0 0
309 20 8 0.0969 7.2617644 22.2816523 15.889225 0 0 0
310 20 3 0.2985 5.516 21.007 15.788 0 0 0
311 20 5 -0.0297 4.729988 20.7780553 15.068369 0 0 0
312 20 3 -0.3192 6.25 19.704 16.181 0 0 0
313 20 5 0.0791 7.0359121 19.932093 16.9010116 0 0 0
314 20 5 0.0791 5.5404705 19.0070432 16.627004 0 0 0
315 20 5 0.0791 6.6917623 19.2530547 15.2924079 0 0 0
316 20 3 -0.3192 4.843 21.615 16.996 0 0 0
317 20 5 0.0791 4.2924261 22.506466 16.6955688 0 0 0
318 20 5 0.0791 4.1530235 20.8917203 17.4306245 0 0 0
319 20 5 0.0791 5.59724 21.8861602 17.7347118 0 0 0
320 20 6 0.597300000549 7.241 21.302 14.018 0 0 0
321 20 7 -0.567900001646 6.631 20.947 13.018 0 0 0
322 21 1 -0.5163 8.547 21.084 14.19 0 0 0
323 21 2 0.2936 9.023258 21.4184276 15.0154913 0 0 0
324 21 3 0.0381 9.318 20.309 13.206 0 0 0
325 21 8 0.088 9.063889 20.6223645 12.1934145 0 0 0
326 21 3 -0.0303 10.807 20.546 13.43 0 0 0
327 21 5 -0.0122 10.9963675 21.6115345 13.3000943 0 0 0
328 21 5 -0.0122 11.0433275 20.257731 14.4542804 0 0 0
329 21 6 0.799399998902 11.673 19.761 12.474 0 0 0
330 21 7 -0.801399998902 11.158 18.817 11.851 0 0 0
331 21 7 -0.801399998902 12.872 20.101 12.36 0 0 0
332 21 6 0.5366 8.949 18.848 13.529 0 0 0
333 21 7 -0.581900001646 9.296 18.329 14.6 0 0 0
334 22 1 -0.2548 8.25 18.16 12.623 0 0 0
335 22 3 0.0192 7.865 18.565 11.26 0 0 0
336 22 8 0.0391 8.6652819 18.3387418 10.5554034 0 0 0
337 22 8 0.0391 7.6444441 19.6319764 11.2281351 0 0 0
338 22 3 0.0189 6.645 17.722 11.036 0 0 0
339 22 5 0.0213 6.4300754 17.6243845 9.9718676 0 0 0
340 22 5 0.0213 5.7797551 18.1488032 11.5432392 0 0 0
341 22 3 -0.007 7.031 16.378 11.653 0 0 0
342 22 5 0.0253 7.6309405 15.7546805 10.9899441 0 0 0
343 22 5 0.0253 6.1380339 15.831071 11.9556217 0 0 0
344 22 3 -0.0266 7.853 16.765 12.891 0 0 0
345 22 8 0.0641 7.2050652 16.7911645 13.7671245 0 0 0
346 22 6 0.589600001098 9.001 15.794 13.138 0 0 0
347 22 7 -0.574799997805 8.795 14.734 13.726 0 0 0
348 23 1 -0.4157 10.197 16.152 12.681 0 0 0
349 23 2 0.2719 10.3049073 17.0183575 12.173181 0 0 0
350 23 3 -0.0249 11.375 15.307 12.868 0 0 0
351 23 8 0.0843 11.0746209 14.2616574 12.9396264 0 0 0
352 23 3 0.2117 12.331 15.461 11.683 0 0 0
353 23 8 0.0352 12.6102678 16.5101789 11.5863955 0 0 0
354 23 8 0.0352 13.2237556 14.8634091 11.8673163 0 0 0
355 23 9 -0.654600001098 11.711 15.026 10.487 0 0 0
356 23 10 0.4275 12.3223425 15.1287034 9.7539842 0 0 0
357 23 6 0.597300000549 12.138 15.634 14.147 0 0 0
358 23 7 -0.567900001646 13.11 14.956 14.482 0 0 0
359 24 1 -0.4157 11.714 16.67 14.861 0 0 0
360 24 2 0.2719 10.9150282 17.2060855 14.5538262 0 0 0
361 24 3 0.0337 12.389 17.075 16.099 0 0 0
362 24 8 0.0823 12.9378867 16.2388757 16.5322652 0 0 0
363 24 3 -0.1825 13.368 18.21 15.824 0 0 0
364 24 5 0.0603 12.8316201 19.0580337 15.3982823 0 0 0
365 24 5 0.0603 13.844749 18.5131519 16.7561532 0 0 0
366 24 5 0.0603 14.1288727 17.871798 15.1205859 0 0 0
367 24 6 0.597300000549 11.364 17.533 17.111 0 0 0
368 24 7 -0.567900001646 11.489 18.612 17.697 0 0 0
369 25 1 -0.3479 10.356 16.692 17.33 0 0 0
370 25 2 0.2747 10.2722075 15.8301588 16.8100885 0 0 0
371 25 3 -0.24 9.305 17.032 18.274 0 0 0
372 25 8 0.1426 8.7993383 17.9437303 17.955954 0 0 0
373 25 3 -0.0094 8.277 15.903 18.346 0 0 0
374 25 5 0.0362 8.8190236 14.9610133 18.4294905 0 0 0
375 25 5 0.0362 7.6741142 16.0552663 19.2412339 0 0 0
376 25 3 0.0187 7.365 15.859 17.119 0 0 0
377 25 5 0.0103 6.9053109 16.838052 16.9839298 0 0 0
378 25 5 0.0103 7.9634713 15.6149787 16.2412827 0 0 0
379 25 3 -0.0479 6.28 14.811 17.299 0 0 0
380 25 5 0.0621 6.7656098 13.8360751 17.3414676 0 0 0
381 25 5 0.0621 5.7821246 15.0099862 18.2480121 0 0 0
382 25 3 -0.0143 5.264 14.817 16.189 0 0 0
383 25 4 0.1135 4.8006941 15.8021399 16.1347085 0 0 0
384 25 4 0.1135 5.7648358 14.5991215 15.2457123 0 0 0
385 25 1 -0.3854 4.218 13.791 16.443 0 0 0
386 25 2 0.34 3.7535015 13.9929533 17.3168167 0 0 0
387 25 2 0.34 3.5430509 13.8052054 15.6917731 0 0 0
388 25 2 0.34 4.6470462 12.8780232 16.4929177 0 0 0
389 25 6 0.734099998354 9.85 17.339 19.657 0 0 0
390 25 7 -0.589399998902 9.29 18.177 20.369 0 0 0
391 26 1 -0.5163 10.94 16.672 20.043 0 0 0
392 26 2 0.2936 11.3425596 15.9505149 19.4620487 0 0 0
393 26 3 0.0397 11.511 16.893 21.365 0 0 0
394 26 8 0.1105 10.7547855 16.7023187 22.1264982 0 0 0
395 26 3 0.056 12.708 15.951 21.612 0 0 0
396 26 5 -0.0173 12.9103082 15.9956463 22.6821296 0 0 0
397 26 5 -0.0173 12.3631423 14.950901 21.3493688 0 0 0
398 26 3 0.0136 13.988 16.268 20.838 0 0 0
399 26 5 -0.0425 14.091333 17.3530403 20.8485244 0 0 0
400 26 5 -0.0425 14.8132617 15.8195689 21.3911291 0 0 0
401 26 6 0.805399998902 14.012 15.768 19.393 0 0 0
402 26 7 -0.818799997805 12.994 15.274 18.869 0 0 0
403 26 7 -0.818799997805 15.11 15.883 18.794 0 0 0
404 26 6 0.5366 11.912 18.348 21.616 0 0 0
405 26 7 -0.581900001646 11.914 18.809 22.765 0 0 0
406 27 1 -0.4157 12.242 19.078 20.547 0 0 0
407 27 2 0.2719 12.2274691 18.6743129 19.6212976 0 0 0
408 27 3 0.0143 12.631 20.488 20.686 0 0 0
409 27 8 0.1048 13.3902328 20.5783072 21.4628587 0 0 0
410 27 3 -0.2041 13.204 21.044 19.372 0 0 0
411 27 5 0.0797 12.5027936 20.8063216 18.5720514 0 0 0
412 27 5 0.0797 13.304162 22.1260491 19.4570726 0 0 0
413 27 6 0.713 14.549 20.462 19.022 0 0 0
414 27 7 -0.593099998354 15.218 19.851 19.862 0 0 0
415 27 1 -0.919099998354 14.965 20.661 17.771 0 0 0
416 27 2 0.4196 15.8587393 20.2952811 17.4750614 0 0 0
417 27 2 0.4196 14.3844836 21.1765535 17.1250076 0 0 0
418 27 6 0.597300000549 11.437 21.362 21.067 0 0 0
419 27 7 -0.567900001646 11.605 22.502 21.524 0 0 0
420 28 1 -0.4157 10.236 20.829 20.868 0 0 0
421 28 2 0.2719 10.1620483 19.922636 20.4285289 0 0 0
422 28 3 -0.0581 9.012 21.563 21.144 0 0 0
423 28 8 0.136 9.211528 22.6275077 21.266927 0 0 0
424 28 3 -0.0074 8.075 21.376 19.949 0 0 0
425 28 5 0.0367 7.9054752 20.3058651 19.8299544 0 0 0
426 28 5 0.0367 7.117554 21.8847504 20.0611167 0 0 0