LAMMPS (17 Nov 2016)
units real
atom_style full
pair_style lj/charmm/coul/long 8.0 10.0 10.0
bond_style harmonic
angle_style harmonic
dihedral_style charmm
improper_style harmonic
kspace_style pppm 0.0001
read_data /var/folders/l9/th_rqp090gg3375t46j58vsm0000gq/T/tmp5lYrjY/data.lammps_mol
  orthogonal box = (-7.23036 -0.25076 7.0531) to (28.4484 30.3588 36.9393)
  1 by 1 by 1 MPI processor grid
  reading atoms ...
  1289 atoms
  reading velocities ...
  1289 velocities
  scanning bonds ...
  4 = max bonds/atom
  scanning angles ...
  6 = max angles/atom
  scanning dihedrals ...
  28 = max dihedrals/atom
  reading bonds ...
  1300 bonds
  reading angles ...
  1862 angles
  reading dihedrals ...
  4484 dihedrals
  4 = max # of 1-2 neighbors
  9 = max # of 1-3 neighbors
  19 = max # of 1-4 neighbors
  21 = max # of special neighbors
group hbond type 4 16 10 5 11 2 8 13 12
689 atoms in group hbond
group water molecule <> 64 155
276 atoms in group water
run 0
WARNING: No fixes defined, atoms won't move (../verlet.cpp:55)
PPPM initialization ...
WARNING: System is not charge neutral, net charge = -2 (../kspace.cpp:298)
WARNING: Using 12-bit tables for long-range coulomb (../kspace.cpp:317)
  G vector (1/distance) = 0.245274
  grid = 15 15 12
  stencil order = 5
  estimated absolute RMS force accuracy = 0.0239282
  estimated relative force accuracy = 7.20591e-05
  using double precision FFTs
  3d grid and FFT values/proc = 6800 2700
Neighbor list info ...
  1 neighbor list requests
  update every 1 steps, delay 10 steps, check yes
  max neighbors/atom: 2000, page size: 100000
  master list distance cutoff = 12
  ghost atom cutoff = 12
  binsize = 6 -> bins = 6 6 5
WARNING: Inconsistent image flags (../domain.cpp:785)
Memory usage per processor = 18.6299 Mbytes
Step Temp E_pair E_mol TotEng Press 
       0    218.97279   -6058.2488    1486.5961   -3730.9541   -794.36387 
Loop time of 0 on 1 procs for 0 steps with 1289 atoms

0.0% CPU use with 1 MPI tasks x no OpenMP threads

MPI task timing breakdown:
Section |  min time  |  avg time  |  max time  |%varavg| %total
---------------------------------------------------------------
Pair    | 0          | 0          | 0          |   0.0 |  0.00
Bond    | 0          | 0          | 0          |   0.0 |  0.00
Kspace  | 0          | 0          | 0          |   0.0 |  0.00
Neigh   | 0          | 0          | 0          |   0.0 |  0.00
Comm    | 0          | 0          | 0          |   0.0 |  0.00
Output  | 0          | 0          | 0          |   0.0 |  0.00
Modify  | 0          | 0          | 0          |   0.0 |  0.00
Other   |            | 0          |            |       |  0.00

Nlocal:    1289 ave 1289 max 1289 min
Histogram: 1 0 0 0 0 0 0 0 0 0
Nghost:    3843 ave 3843 max 3843 min
Histogram: 1 0 0 0 0 0 0 0 0 0
Neighs:    273301 ave 273301 max 273301 min
Histogram: 1 0 0 0 0 0 0 0 0 0

Total # of neighbors = 273301
Ave neighs/atom = 212.026
Ave special neighs/atom = 9.0706
Neighbor list builds = 0
Dangerous builds = 0
print "$(pe)"
-4571.6526588654223815
info system
info system
info system
info system
print "$(fx[1])"
-14.525772760415167184
print "$(fy[1])"
9.0821465640087950533
print "$(fz[1])"
29.158217703781421193
info system
info system
print "$(fx[2])"
0.49680505734815222363
print "$(fy[2])"
0.87347985030723906963
print "$(fz[2])"
-3.2920173645519201777
info system
info system
print "$(fx[3])"
-6.5996895026690838293
print "$(fy[3])"
-3.4661739642085658275
print "$(fz[3])"
-5.0019746051228359818
info system
info system
print "$(fx[4])"
-0.31640785707150975714
print "$(fy[4])"
-3.7762217582708834662
print "$(fz[4])"
3.6405347664758083148
info system
info system
print "$(fx[5])"
12.004694129992278917
print "$(fy[5])"
-14.552129886768149447
print "$(fz[5])"
-7.89274014787322553info system
info system
info system
info system
info system
info system
info system
info system
info system
info system
info system
info system
info system
info system
info system
info system
info system
info system
info system
info system
info system
info system
info system
info system
info system
info system
info system
info system
info system
info system
info system
info system
undump position
undump velocity
8432028673157461
info system
info system
print "$(fx[9])"
-2.5824033025254764517
print "$(fy[9])"
0.97616925556345235382
print "$(fz[9])"
0.42529858716727891865
info system
info system
print "$(fx[10])"
-2.3909045225565077608
print "$(fy[10])"
-4.3724790935661088653
print "$(fz[10])"
3.130988020517083914
info system
info system
print "$(fx[11])"
0.88027342528762897444
print "$(fy[11])"
-1.1730355610229605823
print "$(fz[11])"
-3.1406242249349243245
info system
info system
print "$(fx[12])"
17.907029106728504786
print "$(fy[12])"
-6.5812585619857557617
print "$(fz[12])"
8.8635703099422507023
info system
info system
print "$(fx[13])"
-12.150682592973895524
print "$(fy[13])"
2.2002879577211951201
print "$(fz[13])"
-6.6530642912199047245
info system
info system
print "$(fx[14])"
1.0375887487186710167
print "$(fy[14])"
3.7733308407038546051
print "$(fz[14])"
1.0247536349383761234
info system
info system
print "$(fx[15])"
-1.467899061575111741
print "$(fy[15])"
0.25459246598007456708
print "$(fz[15])"
-1.9065779807511056276
info system
info system
print "$(fx[16])"
-4.6988434744773206475
print "$(fy[16])"
-5.1969578038173116497
print "$(fz[16])"
4.1574873070751152682
info system
info system
print "$(fx[17])"
-0.044814981768669708007
print "$(fy[17])"
2.3005565160558623106
print "$(fz[17])"
-0.61963880870019039104
info system
info system
print "$(fx[18])"
1.5167338608139475653
print "$(fy[18])"
2.0313404824680256766
print "$(fz[18])"
-0.93276355952086886791
info system
info system
print "$(fx[19])"
0.28969137407120515437
print "$(fy[19])"
2.3946433788023075984
print "$(fz[19])"
-1.856398856175539569
info system
info system
print "$(fx[20])"
-8.3381216140610288079
print "$(fy[20])"
-12.479577989568406693
print "$(fz[20])"
3.5508173161970639775
info system
info system
print "$(fx[21])"
-0.33141023432598148979
print "$(fy[21])"
9.2288598100616869857
print "$(fz[21])"
-10.152424383316658307
info system
info system
print "$(fx[22])"
22.242438263827363443
print "$(fy[22])"
-14.326458697457910674
print "$(fz[22])"
2.7481844690045735824
info system
info system
print "$(fx[23])"
-4.2063454140273917048
print "$(fy[23])"
6.9464166166866947449
print "$(fz[23])"
-0.82946470602353261636
info system
info system
print "$(fx[24])"
-20.26818889710121141
print "$(fy[24])"
8.3619206084855086658
print "$(fz[24])"
13.052605024656827482
info system
info system
print "$(fx[25])"
-0.2419822988545024256
print "$(fy[25])"
0.19956702834542844327
print "$(fz[25])"
2.3897812514968004294
info system
info system
print "$(fx[26])"
-1.5462956614623502016
print "$(fy[26])"
3.7882115800428315389
print "$(fz[26])"
-5.6863191639400660904
info system
info system
print "$(fx[27])"
1.5123527725914396314
print "$(fy[27])"
-1.9364856414273736718
print "$(fz[27])"
1.4621921028424154088
info system
info system
print "$(fx[28])"
0.40920400234577947174
print "$(fy[28])"
-0.67584499760796334922
print "$(fz[28])"
1.0475566115981063131
info system
info system
print "$(fx[29])"
-0.65340390126622938105
print "$(fy[29])"
0.72324094950336437204
print "$(fz[29])"
6.5004481212253244493
info system
info system
print "$(fx[30])"
-0.65529954631109654795
print "$(fy[30])"
-0.69469296155311910379
print "$(fz[30])"
1.4704745708326367737
info system
info system
print "$(fx[31])"
2.8350029052453109557
print "$(fy[31])"
-2.6006539314447527644
print "$(fz[31])"
1.0700386361359817133
info system
info system
print "$(fx[32])"
3.5627320623050806603
print "$(fy[32])"
6.9534996872970147308
print "$(fz[32])"
-9.3593998623275442839
info system
info system
print "$(fx[33])"
-8.2029066610438299278
print "$(fy[33])"
-4.0174781101030783148
print "$(fz[33])"
3.4112548321375788518
info system
info system
print "$(fx[34])"
-12.339464227562261911
print "$(fy[34])"
-0.72361786564059538129
print "$(fz[34])"
-3.5017423052496345903
info system
info system
print "$(fx[35])"
-2.5200400011323123017
print "$(fy[35])"
0.74948770844126522128
print "$(fz[35])"
10.919981171532921138
info system
info system
print "$(fx[36])"
-1.487576390293630979
print "$(fy[36])"
10.929524809374150607
print "$(fz[36])"
2.5175312590435185989
info system
info system
print "$(fx[37])"
-5.8963962891764953866
print "$(fy[37])"
9.0005419797057530928
print "$(fz[37])"
-6.700460707492111645
info system
info system
print "$(fx[38])"
-0.2793256572441062402
print "$(fy[38])"
5.7451530957867786853
print "$(fz[38])"
0.098015219149227464368
info system
info system
print "$(fx[39])"
8.7462152456513919674
print "$(fy[39])"
-19.544499269976689959
print "$(fz[39])"
4.7794072865988219689
info system
info system
print "$(fx[40])"
2.7943107032137342038
print "$(fy[40])"
-1.8918439966193045798
print "$(fz[40])"
0.24203079832623952683
info system
info system
print "$(fx[41])"
6.5624880675327057489
print "$(fy[41])"
-4.8022311263966788175
print "$(fz[41])"
-3.8177161968673885006
info system
info system
print "$(fx[42])"
-0.071406017915972050392
print "$(fy[42])"
0.42289566016486263011
print "$(fz[42])"
-0.1998512620488081537
info system
info system
print "$(fx[43])"
1.6073179538628983298
print "$(fy[43])"
-2.6205416701261161627
print "$(fz[43])"
-5.7830617650230768945
info system
info system
print "$(fx[44])"
-0.67487844661733908946
print "$(fy[44])"
0.45699273118388411552
print "$(fz[44])"
0.043918999552895722494
info system
info system
print "$(fx[45])"
-0.29150546649738889871
print "$(fy[45])"
0.077701625154163678211
print "$(fz[45])"
1.2799722048613391134
info system
info system
print "$(fx[46])"
-0.11355639596562924765
print "$(fy[46])"
1.288795720892804253
print "$(fz[46])"
-1.1887110184536402446
info system
info system
print "$(fx[47])"
6.9965762691412587415
print "$(fy[47])"
8.0366141548656706561
print "$(fz[47])"
2.4725293253499938118
info system
info system
print "$(fx[48])"
-2.0867883209880950801
print "$(fy[48])"
1.465626944417364852
print "$(fz[48])"
0.56089924203405971959
info system
info system
print "$(fx[49])"
-2.9515193175871994313
print "$(fy[49])"
-9.4526509459314258521
print "$(fz[49])"
8.733667403214708358
info system
info system
print "$(fx[50])"
3.2652310406851006164
print "$(fy[50])"
-3.2876024967684491784
print "$(fz[50])"
-8.7283714780239769482
info system
info system
print "$(fx[51])"
14.725998106500167495
print "$(fy[51])"
3.429707750751717299
print "$(fz[51])"
-1.0698271399730745479
info system
info system
print "$(fx[52])"
-4.7398321387777118119
print "$(fy[52])"
5.2402504144606361081
print "$(fz[52])"
-1.3660656954471470659
info system
info system
print "$(fx[53])"
-10.411559809845815749
print "$(fy[53])"
-5.040360675687047376
print "$(fz[53])"
7.0726176744359454673
info system
info system
print "$(fx[54])"
-4.3856676581170939144
print "$(fy[54])"
0.93299926136613986483
print "$(fz[54])"
0.85643228578985453048
info system
info system
print "$(fx[55])"
-7.09089133992174947
print "$(fy[55])"
3.9815148238633231159
print "$(fz[55])"
1.046794125137598952
info system
info system
print "$(fx[56])"
2.7865180129445055179
print "$(fy[56])"
1.2313032227127749252
print "$(fz[56])"
0.30435027945377274294
info system
info system
print "$(fx[57])"
-2.5798327384574410992
print "$(fy[57])"
0.30616466657783580896
print "$(fz[57])"
-7.0972340383029486333
info system
info system
print "$(fx[58])"
0.77215820892514563933
print "$(fy[58])"
-8.7482360954817455223
print "$(fz[58])"
1.3414760673361558752
info system
info system
print "$(fx[59])"
-13.256068461032029404
print "$(fy[59])"
4.6072462981227850776
print "$(fz[59])"
2.1024799680380099609
info system
info system
print "$(fx[60])"
4.0552631402258025872
print "$(fy[60])"
-5.1475052473413267506
print "$(fz[60])"
0.68585625027356578176
info system
info system
print "$(fx[61])"
-4.8776013526137136367
print "$(fy[61])"
-0.15547055715616661664
print "$(fz[61])"
-2.3616175944272295162
info system
info system
print "$(fx[62])"
4.9726231185865117368
print "$(fy[62])"
3.6342725108997990802
print "$(fz[62])"
-3.9093041649303224006
info system
info system
print "$(fx[63])"
1.8166780807480118476
print "$(fy[63])"
-8.8800787232571600782
print "$(fz[63])"
6.320159191949286992
info system
info system
print "$(fx[64])"
-0.14910800952029198974
print "$(fy[64])"
3.7451436442562062723
print "$(fz[64])"
-3.0160712314354243269
info system
info system
print "$(fx[65])"
3.5745297238894804259
print "$(fy[65])"
-1.360500810177656783
print "$(fz[65])"
0.63657496377267908105
info system
info system
print "$(fx[66])"
-5.7335162956910963317
print "$(fy[66])"
3.4896337075040761988
print "$(fz[66])"
-1.0465312340165973115
info system
info system
print "$(fx[67])"
15.19649933592710056
print "$(fy[67])"
3.9660457347071673695
print "$(fz[67])"
-5.5525391453253050145
info system
info system
print "$(fx[68])"
-5.0441834218194587791
print "$(fy[68])"
-2.8572763724424601328
print "$(fz[68])"
2.7624186955541900623
info system
info system
print "$(fx[69])"
9.094311079957474675
print "$(fy[69])"
7.4610057703321741585
print "$(fz[69])"
-18.743473625785288306
info system
info system
print "$(fx[70])"
5.6827321445632827945
print "$(fy[70])"
4.9009103672117682038
print "$(fz[70])"
-9.2028810896306509903
info system
info system
print "$(fx[71])"
-5.7148077520118185646
print "$(fy[71])"
4.3481028794534983817
print "$(fz[71])"
-1.6276798300583998902
info system
info system
print "$(fx[72])"
-14.882961777466428899
print "$(fy[72])"
-2.571500003068681206
print "$(fz[72])"
5.1602860950368389936
info system
info system
print "$(fx[73])"
-0.4939253449490796366
print "$(fy[73])"
2.5427304463784241584
print "$(fz[73])"
-1.6382761057742978306
info system
info system
print "$(fx[74])"
3.0079467738704743773
print "$(fy[74])"
1.4140681907098180403
print "$(fz[74])"
-2.3708426760113012755
info system
info system
print "$(fx[75])"
12.823213162996498937
print "$(fy[75])"
-11.452342968172109394
print "$(fz[75])"
-4.5676927067380921343
info system
info system
print "$(fx[76])"
0.12848228182771795347
print "$(fy[76])"
-1.3936987257829629439
print "$(fz[76])"
-2.3738570409236183778
info system
info system
print "$(fx[77])"
-1.5693924397635206081
print "$(fy[77])"
0.36741871437711659532
print "$(fz[77])"
0.63876655187563435856
info system
info system
print "$(fx[78])"
-4.098076685952950271
print "$(fy[78])"
11.162962703170823175
print "$(fz[78])"
-1.8191911591001395099
info system
info system
print "$(fx[79])"
-3.4724243010592084069
print "$(fy[79])"
2.6895321663370772569
print "$(fz[79])"
0.55409698229874126962
info system
info system
print "$(fx[80])"
3.8684139111931514776
print "$(fy[80])"
-5.1117427786512070753
print "$(fz[80])"
0.64578068537976851538
info system
info system
print "$(fx[81])"
5.3532906461158624722
print "$(fy[81])"
-7.6598330949161663739
print "$(fz[81])"
18.352339282464360082
info system
info system
print "$(fx[82])"
3.9839985363327912182
print "$(fy[82])"
-2.0250430563052650434
print "$(fz[82])"
-2.4192150365489522024
info system
info system
print "$(fx[83])"
-6.8296927485634704169
print "$(fy[83])"
-5.7323199955050219145
print "$(fz[83])"
2.7308212779509202228
info system
info system
print "$(fx[84])"
1.5713737189587806409
print "$(fy[84])"
1.7144361350433092728
print "$(fz[84])"
-6.2108113739061758807
info system
info system
print "$(fx[85])"
6.6216102204676996479
print "$(fy[85])"
13.922888673590581021
print "$(fz[85])"
8.7067408579603196017
info system
info system
print "$(fx[86])"
-7.719724614003714791
print "$(fy[86])"
-3.4954453862934089514
print "$(fz[86])"
-4.3786882349464573139
info system
info system
print "$(fx[87])"
-1.4602148929197635852
print "$(fy[87])"
1.6859554349140806195
print "$(fz[87])"
1.9983832641149643639
info system
info system
print "$(fx[88])"
1.9925840419278539883
print "$(fy[88])"
-2.8381084296612120177
print "$(fz[88])"
-1.5546348810339587487
info system
info system
print "$(fx[89])"
-10.205890210343183
print "$(fy[89])"
-4.4819203284338975379
print "$(fz[89])"
0.53224399895144125505
info system
info system
print "$(fx[90])"
0.74043791627694788282
print "$(fy[90])"
1.877939842880084198
print "$(fz[90])"
-3.5832129828238685754
info system
info system
print "$(fx[91])"
-0.49361725422605273739
print "$(fy[91])"
-0.085129012258302355631
print "$(fz[91])"
0.7434436959546276702
info system
info system
print "$(fx[92])"
8.6588066871000606284
print "$(fy[92])"
1.5793908311263589184
print "$(fz[92])"
2.1050010236178025025
info system
info system
print "$(fx[93])"
-2.5012416296233417334
print "$(fy[93])"
2.6483627173386534714
print "$(fz[93])"
0.08882046583136103679
info system
info system
print "$(fx[94])"
-13.172010885593689267
print "$(fy[94])"
25.558152643562770834
print "$(fz[94])"
-6.2254349460958842144
info system
info system
print "$(fx[95])"
0.70242495495126822114
print "$(fy[95])"
-1.7802692684808540946
print "$(fz[95])"
1.6980754114474156946
info system
info system
print "$(fx[96])"
8.1653750775173818965
print "$(fy[96])"
-23.096515173407034638
print "$(fz[96])"
-3.4924655586134289997
info system
info system
print "$(fx[97])"
-0.002447186833294812125
print "$(fy[97])"
2.4873659974984483334
print "$(fz[97])"
1.8865076974539778387
info system
info system
print "$(fx[98])"
-4.0480038458024383274
print "$(fy[98])"
2.5994095821558440562
print "$(fz[98])"
-0.27274391568191935775
info system
info system
print "$(fx[99])"
0.58761892807143634165
print "$(fy[99])"
-0.25579706921950517984
print "$(fz[99])"
-0.39734538657243012594
info system
info system
print "$(fx[100])"
1.51471356450262018
print "$(fy[100])"
0.28537412576733689473
print "$(fz[100])"
-1.5406038820937602019
info system
info system
print "$(fx[101])"
0.88652745000037147527
print "$(fy[101])"
-0.012704401240678175888
print "$(fz[101])"
-2.018945486785511445
info system
info system
print "$(fx[102])"
-2.5198194926388621795
print "$(fy[102])"
2.6954174073996215455
print "$(fz[102])"
0.086493608810711108958
info system
info system
print "$(fx[103])"
6.4753213356965275693
print "$(fy[103])"
-2.6677468800453878472
print "$(fz[103])"
-7.7896660725223156874
info system
info system
print "$(fx[104])"
4.7929455748877325405
print "$(fy[104])"
11.609236964823969274
print "$(fz[104])"
6.1327818478054938467
info system
info system
print "$(fx[105])"
-0.038736098904893587203
print "$(fy[105])"
3.1624983027981525829
print "$(fz[105])"
-3.5329873382455634356
info system
info system
print "$(fx[106])"
-7.7290320131144003568
print "$(fy[106])"
12.970435627362771669
print "$(fz[106])"
-2.3194123029959858862
info system
info system
print "$(fx[107])"
-1.0501782972859863285
print "$(fy[107])"
-1.3180025432601230051
print "$(fz[107])"
-7.7052872003132453216
info system
info system
print "$(fx[108])"
8.7918217461873453544
print "$(fy[108])"
-10.340527360816251345
print "$(fz[108])"
2.4472730253137733314
info system
info system
print "$(fx[109])"
-0.3597556084222468531
print "$(fy[109])"
1.4788957262915414237
print "$(fz[109])"
1.2072528742290804527
info system
info system
print "$(fx[110])"
0.62922460153189463394
print "$(fy[110])"
-0.80668914785880174723
print "$(fz[110])"
-3.7536692786438194958
info system
info system
print "$(fx[111])"
-7.4347960241162240891
print "$(fy[111])"
11.307671563638514556
print "$(fz[111])"
0.34415985029542461859
info system
info system
print "$(fx[112])"
1.5535829577755997377
print "$(fy[112])"
0.083388485193205880153
print "$(fz[112])"
-6.0138342745704589376
info system
info system
print "$(fx[113])"
2.0833766065693852809
print "$(fy[113])"
-2.9282059579856181131
print "$(fz[113])"
2.8993303760242712386
info system
info system
print "$(fx[114])"
11.471214520271761472
print "$(fy[114])"
4.3796208782253254199
print "$(fz[114])"
-0.37736315586342755735
info system
info system
print "$(fx[115])"
-1.8779609735816273908
print "$(fy[115])"
-1.5039398171356386236
print "$(fz[115])"
-1.3780435726677409125
info system
info system
print "$(fx[116])"
10.654044092905257557
print "$(fy[116])"
-10.620115474254550492
print "$(fz[116])"
9.606684565156962563
info system
info system
print "$(fx[117])"
-0.12700385624276930296
print "$(fy[117])"
-0.4899111473872111433
print "$(fz[117])"
2.5559751143654052541
info system
info system
print "$(fx[118])"
-0.93590002976980746219
print "$(fy[118])"
-5.6360521394855433996
print "$(fz[118])"
3.9284323239964638041
info system
info system
print "$(fx[119])"
0.44380336881037546481
print "$(fy[119])"
1.1934383457093409309
print "$(fz[119])"
-4.4063317873909282341
info system
info system
print "$(fx[120])"
-8.5249081217428361867
print "$(fy[120])"
3.0838970065233457518
print "$(fz[120])"
-10.636622541475391657
info system
info system
print "$(fx[121])"
0.93519591558387105135
print "$(fy[121])"
-0.68658502667907395089
print "$(fz[121])"
1.1570944876426922932
info system
info system
print "$(fx[122])"
-4.3108979300682817026
print "$(fy[122])"
3.6750784586625426797
print "$(fz[122])"
8.9074460091601785905
info system
info system
print "$(fx[123])"
0.38985853833252748224
print "$(fy[123])"
0.061550335313501576551
print "$(fz[123])"
0.24654902956438731754
info system
info system
print "$(fx[124])"
-1.3520977579318900208
print "$(fy[124])"
0.15316870810769964151
print "$(fz[124])"
0.52849928433782311643
info system
info system
print "$(fx[125])"
1.5577287096942651345
print "$(fy[125])"
-2.8420659442529214722
print "$(fz[125])"
2.4427016267415502249
info system
info system
print "$(fx[126])"
2.7045158742220385406
print "$(fy[126])"
-2.180594613549679206
print "$(fz[126])"
-1.6478901803388923408
info system
info system
print "$(fx[127])"
1.9563472979600058377
print "$(fy[127])"
-0.7916077101449564557
print "$(fz[127])"
-0.10592934530487799205
info system
info system
print "$(fx[128])"
-0.1203631398310452405
print "$(fy[128])"
0.18655129161716882402
print "$(fz[128])"
0.2016824853334095724
info system
info system
print "$(fx[129])"
0.037380851584553100031
print "$(fy[129])"
0.47405509792075689601
print "$(fz[129])"
0.48514462715451628361
info system
info system
print "$(fx[130])"
1.6285012578836066677
print "$(fy[130])"
2.6557335833882396159
print "$(fz[130])"
1.9588023463073982455
info system
info system
print "$(fx[131])"
0.46054106741637240718
print "$(fy[131])"
-5.134814308869197319
print "$(fz[131])"
-9.5212770454838651091
info system
info system
print "$(fx[132])"
6.046365982341715295
print "$(fy[132])"
-12.34270084813154611
print "$(fz[132])"
25.98124208617529618
info system
info system
print "$(fx[133])"
-0.92161146950568051395
print "$(fy[133])"
-1.4358198443998650973
print "$(fz[133])"
-4.9107955291939546782
info system
info system
print "$(fx[134])"
-3.4122925623927859995
print "$(fy[134])"
-7.4805549015542061042
print "$(fz[134])"
9.3513538387297998611
info system
info system
print "$(fx[135])"
2.7009100320953143282
print "$(fy[135])"
-0.2573184830969353909
print "$(fz[135])"
-4.1503457486473589455
info system
info system
print "$(fx[136])"
-0.86504440147526240334
print "$(fy[136])"
-3.3578551064921011715
print "$(fz[136])"
-4.7162345682559276838
info system
info system
print "$(fx[137])"
-2.2633274304163260027
print "$(fy[137])"
-0.23162269193483669971
print "$(fz[137])"
-0.098625926230913874004
info system
info system
print "$(fx[138])"
-0.86025105156376102666
print "$(fy[138])"
-0.87556530366165952195
print "$(fz[138])"
-1.5778991574425582645
info system
info system
print "$(fx[139])"
8.3597344677427543047
print "$(fy[139])"
1.9264084795277722773
print "$(fz[139])"
-6.4782012572545717433
info system
info system
print "$(fx[140])"
-1.7939112965815076084
print "$(fy[140])"
0.50715928533075871343
print "$(fz[140])"
-2.600137714056574012
info system
info system
print "$(fx[141])"
-7.5156313752850367749
print "$(fy[141])"
2.1594082511114129908
print "$(fz[141])"
-5.4996207007308068881
info system
info system
print "$(fx[142])"
-2.5824346786689087452
print "$(fy[142])"
-0.03672956557029993796
print "$(fz[142])"
-2.8271493439108774659
info system
info system
print "$(fx[143])"
-0.72019111000449953508
print "$(fy[143])"
-0.31387563889306607789
print "$(fz[143])"
-3.8554083201775788403
info system
info system
print "$(fx[144])"
2.6034730794574763024
print "$(fy[144])"
-5.6464190737761068561
print "$(fz[144])"
16.717578765838190691
info system
info system
print "$(fx[145])"
1.0699569317082171516
print "$(fy[145])"
6.1284529890176768774
print "$(fz[145])"
2.6663070910528152702
info system
info system
print "$(fx[146])"
-2.2806983998229908295
print "$(fy[146])"
-2.4101633930221710855
print "$(fz[146])"
0.4499487143013536361
info system
info system
print "$(fx[147])"
1.0661460798023212337
print "$(fy[147])"
-0.79613227366426786435
print "$(fz[147])"
-0.73071141457075805548
info system
info system
print "$(fx[148])"
-0.54994415770296645185
print "$(fy[148])"
-1.1188335100057136273
print "$(fz[148])"
-0.19809242950902930525
info system
info system
print "$(fx[149])"
-1.1369317015464681653
print "$(fy[149])"
-3.8405196687660843047
print "$(fz[149])"
6.1755607599097244176
info system
info system
print "$(fx[150])"
1.1462054888277699582
print "$(fy[150])"
0.91639918574611667346
print "$(fz[150])"
6.1970646451053408299
info system
info system
print "$(fx[151])"
-4.7971397858122397651
print "$(fy[151])"
15.44942958809651401
print "$(fz[151])"
3.8390294185640354563
info system
info system
print "$(fx[152])"
0.42204538034906446953
print "$(fy[152])"
-2.3439209962409881527
print "$(fz[152])"
-4.4632512363005218958
info system
info system
print "$(fx[153])"
-2.5836227295354960987
print "$(fy[153])"
6.4234788084169123223
print "$(fz[153])"
-9.4605274540787682724
info system
info system
print "$(fx[154])"
-1.2629386643132511914
print "$(fy[154])"
-2.082923563335098649
print "$(fz[154])"
-2.7743699902803409252
info system
info system
print "$(fx[155])"
7.1389205191462457023
print "$(fy[155])"
-9.6970766896805198343
print "$(fz[155])"
7.6197232830647303459
info system
info system
print "$(fx[156])"
1.7011983481304444599
print "$(fy[156])"
-0.098803424131515937834
print "$(fz[156])"
1.4467237223435640558
info system
info system
print "$(fx[157])"
6.2576345544413864985
print "$(fy[157])"
5.69192382310180367
print "$(fz[157])"
10.611121299419242092
info system
info system
print "$(fx[158])"
1.1884616708798656504
print "$(fy[158])"
-0.55442417108032282513
print "$(fz[158])"
-0.83556392008442803565
info system
info system
print "$(fx[159])"
1.4187016503559528591
print "$(fy[159])"
-0.28277906034879224384
print "$(fz[159])"
-0.78545108059615387219
info system
info system
print "$(fx[160])"
-2.0553422432964452149
print "$(fy[160])"
4.7284880565957099208
print "$(fz[160])"
-0.96306418241013647119
info system
info system
print "$(fx[161])"
-7.1758581295907744035
print "$(fy[161])"
-1.2179297543899954004
print "$(fz[161])"
-0.93282490939048057221
info system
info system
print "$(fx[162])"
-1.3551545459155462936
print "$(fy[162])"
1.6197026867120334348
print "$(fz[162])"
-1.2924435320462315246
info system
info system
print "$(fx[163])"
0.025946868816723811513
print "$(fy[163])"
0.5537060249182758076
print "$(fz[163])"
-0.17692256299690026222
info system
info system
print "$(fx[164])"
-0.38802336215863653113
print "$(fy[164])"
-0.049240456276702454508
print "$(fz[164])"
-0.66346832038994418834
info system
info system
print "$(fx[165])"
-10.364664717240355429
print "$(fy[165])"
1.4598225684191747931
print "$(fz[165])"
0.22600068989727892244
info system
info system
print "$(fx[166])"
1.2338259602597763109
print "$(fy[166])"
4.8710467112017132862
print "$(fz[166])"
-1.9837298834897432176
info system
info system
print "$(fx[167])"
15.5470549809270846
print "$(fy[167])"
13.48367008366369646
print "$(fz[167])"
-2.6824848391649105395
info system
info system
print "$(fx[168])"
-0.027020650256501025505
print "$(fy[168])"
-3.9451129482331195319
print "$(fz[168])"
-6.5706788137214804379
info system
info system
print "$(fx[169])"
-3.670572845319835853
print "$(fy[169])"
14.462080661111363256
print "$(fz[169])"
-12.687211236547407012
info system
info system
print "$(fx[170])"
-1.1473130197146963472
print "$(fy[170])"
2.1583984958389037523
print "$(fz[170])"
-13.668209734664140242
info system
info system
print "$(fx[171])"
-3.0517246708741523342
print "$(fy[171])"
-1.9784719875923388877
print "$(fz[171])"
8.2227885544132419682
info system
info system
print "$(fx[172])"
0.63780599202815912996
print "$(fy[172])"
-0.80856556867541173883
print "$(fz[172])"
4.1631933440380821665
info system
info system
print "$(fx[173])"
0.99644933907248822713
print "$(fy[173])"
-0.51236137037411388917
print "$(fz[173])"
-1.6791107889474523596
info system
info system
print "$(fx[174])"
-0.735225359960599123
print "$(fy[174])"
5.0522670090009018651
print "$(fz[174])"
13.46228719632155979
info system
info system
print "$(fx[175])"
-0.201761794296779845
print "$(fy[175])"
4.8128072622980075934
print "$(fz[175])"
0.89964544923765055184
info system
info system
print "$(fx[176])"
-22.518117723916283524
print "$(fy[176])"
7.6161384080877629899
print "$(fz[176])"
1.4420635769617236033
info system
info system
print "$(fx[177])"
3.0823629431589010252
print "$(fy[177])"
2.2074325788837714235
print "$(fz[177])"
-1.2027533273253276924
info system
info system
print "$(fx[178])"
12.223622316354646244
print "$(fy[178])"
-10.971126016113780466
print "$(fz[178])"
-7.1343685023499876507
info system
info system
print "$(fx[179])"
-3.4852403216834204613
print "$(fy[179])"
-14.426005145692091247
print "$(fz[179])"
-10.600713317175157968
info system
info system
print "$(fx[180])"
14.416073756690641616
print "$(fy[180])"
-1.697848150298664649
print "$(fz[180])"
2.4824099308750833259
info system
info system
print "$(fx[181])"
5.2822772848609975682
print "$(fy[181])"
-2.1903973039616579932
print "$(fz[181])"
11.535858418101152978
info system
info system
print "$(fx[182])"
1.4298387533511736081
print "$(fy[182])"
-1.6652612192293676507
print "$(fz[182])"
2.9584407921031288247
info system
info system
print "$(fx[183])"
-10.055636102159779099
print "$(fy[183])"
-0.81923791811223478643
print "$(fz[183])"
-5.6256794747845120241
info system
info system
print "$(fx[184])"
-0.55176529950792896351
print "$(fy[184])"
1.6345024895893942585
print "$(fz[184])"
3.3572110504921273133
info system
info system
print "$(fx[185])"
-8.081404550166759293
print "$(fy[185])"
4.8651502232403656123
print "$(fz[185])"
-18.417900167024303215
info system
info system
print "$(fx[186])"
-1.1453138021251099143
print "$(fy[186])"
-0.78539561631222332139
print "$(fz[186])"
-0.17756601593756524138
info system
info system
print "$(fx[187])"
2.4297123130284750125
print "$(fy[187])"
12.231701413782355203
print "$(fz[187])"
21.481702508863126155
info system
info system
print "$(fx[188])"
1.7584461195481864149
print "$(fy[188])"
-2.8517488585310615257
print "$(fz[188])"
0.34997393120766689956
info system
info system
print "$(fx[189])"
-2.0208601311131277889
print "$(fy[189])"
-0.34462641468182919624
print "$(fz[189])"
3.6429520690585190934
info system
info system
print "$(fx[190])"
5.2810607496077857093
print "$(fy[190])"
-6.5927529178012092004
print "$(fz[190])"
-14.510191377573177007
info system
info system
print "$(fx[191])"
-4.9577893729622042329
print "$(fy[191])"
11.527138010322644845
print "$(fz[191])"
13.370216140745609934
info system
info system
print "$(fx[192])"
-1.6993872078567215933
print "$(fy[192])"
-11.156645875080293706
print "$(fz[192])"
7.0306307058609753824
info system
info system
print "$(fx[193])"
-0.51550744048459173907
print "$(fy[193])"
3.7687353825485661041
print "$(fz[193])"
-10.143718945084804872
info system
info system
print "$(fx[194])"
0.89194620919610578813
print "$(fy[194])"
-6.8496026612483396079
print "$(fz[194])"
4.9180184550480534611
info system
info system
print "$(fx[195])"
6.6735927221652175945
print "$(fy[195])"
3.8974487078922939176
print "$(fz[195])"
20.606500680687496185
info system
info system
print "$(fx[196])"
-7.9492025964729640108
print "$(fy[196])"
6.0171631918866399502
print "$(fz[196])"
5.9314146276565669069
info system
info system
print "$(fx[197])"
-3.6813839068471567728
print "$(fy[197])"
-17.754301350811282134
print "$(fz[197])"
-16.230111905918462867
info system
info system
print "$(fx[198])"
2.0450718718168010568
print "$(fy[198])"
-2.0295484212305314742
print "$(fz[198])"
-8.0044347964563424824
info system
info system
print "$(fx[199])"
7.7547061790654439051
print "$(fy[199])"
-1.3102063277705100486
print "$(fz[199])"
-1.0084060238909846596
info system
info system
print "$(fx[200])"
1.0434436541914799967
print "$(fy[200])"
0.7933248255480802591
print "$(fz[200])"
0.77603187488189084853
info system
info system
print "$(fx[201])"
0.31698284129551590471
print "$(fy[201])"
-1.4702144002290096214
print "$(fz[201])"
-0.42651817518542312069
info system
info system
print "$(fx[202])"
0.68911396905028254878
print "$(fy[202])"
0.22383218821864833692
print "$(fz[202])"
1.1949852286563391601
info system
info system
print "$(fx[203])"
0.006697089196139333761
print "$(fy[203])"
-0.25753226036796839082
print "$(fz[203])"
-2.0670636024155144561
info system
info system
print "$(fx[204])"
2.1557074833123439639
print "$(fy[204])"
6.3025068363554739292
print "$(fz[204])"
12.97075260873529956
info system
info system
print "$(fx[205])"
-3.3380088191093650885
print "$(fy[205])"
-6.1644835973113707439
print "$(fz[205])"
-10.580129360313021536
info system
info system
print "$(fx[206])"
-1.6216560606956802459
print "$(fy[206])"
-1.3104474721108301249
print "$(fz[206])"
-1.8644246530054153776
info system
info system
print "$(fx[207])"
-1.8185483129308586125
print "$(fy[207])"
3.9493839047658712005
print "$(fz[207])"
-5.2300889899544333872
info system
info system
print "$(fx[208])"
-0.44240591663095646391
print "$(fy[208])"
0.99167309891968269397
print "$(fz[208])"
1.3726215915866066819
info system
info system
print "$(fx[209])"
2.1551527532850958124
print "$(fy[209])"
6.3211872634166903495
print "$(fz[209])"
-2.0110898792476228358
info system
info system
print "$(fx[210])"
-0.41844486011781267809
print "$(fy[210])"
-0.11330003509430651432
print "$(fz[210])"
1.2649082529627153626
info system
info system
print "$(fx[211])"
0.44333316434005004547
print "$(fy[211])"
-0.85555953985608412804
print "$(fz[211])"
-0.81111828475103542324
info system
info system
print "$(fx[212])"
-0.3583526806690928157
print "$(fy[212])"
-0.052354492519611051105
print "$(fz[212])"
0.46221592262888600011
info system
info system
print "$(fx[213])"
-3.0286242852857565566
print "$(fy[213])"
-0.70241296831217647778
print "$(fz[213])"
9.7905179011236462827
info system
info system
print "$(fx[214])"
4.3598604587260254561
print "$(fy[214])"
10.564821988122378826
print "$(fz[214])"
9.8848062551162492184
info system
info system
print "$(fx[215])"
-18.184781057620817535
print "$(fy[215])"
-12.569563201617805603
print "$(fz[215])"
2.8374873794777348834
info system
info system
print "$(fx[216])"
-0.59752946908930593128
print "$(fy[216])"
1.3949102940294075825
print "$(fz[216])"
0.74701561402639227172
info system
info system
print "$(fx[217])"
8.9882382456744736032
print "$(fy[217])"
3.2750138863258921873
print "$(fz[217])"
5.9164079958839259632
info system
info system
print "$(fx[218])"
-0.63130269062677990544
print "$(fy[218])"
4.1079961520295382726
print "$(fz[218])"
0.65475088419635452119
info system
info system
print "$(fx[219])"
1.4240485475321773556
print "$(fy[219])"
0.34188564989909769887
print "$(fz[219])"
2.6779862517541910272
info system
info system
print "$(fx[220])"
1.6675315173253699719
print "$(fy[220])"
1.6114959351804973853
print "$(fz[220])"
2.1868766362576157469
info system
info system
print "$(fx[221])"
3.7236748944882869239
print "$(fy[221])"
-1.0959987003218192303
print "$(fz[221])"
0.63230735714633135025
info system
info system
print "$(fx[222])"
-0.56789935997484719543
print "$(fy[222])"
-3.9802808684374730852
print "$(fz[222])"
-13.922927222762400135
info system
info system
print "$(fx[223])"
4.8329605323544901907
print "$(fy[223])"
3.1350741330608138391
print "$(fz[223])"
0.72947918366557229497
info system
info system
print "$(fx[224])"
-6.1552707752548840858
print "$(fy[224])"
-4.9755670086012937503
print "$(fz[224])"
0.095515679953593335405
info system
info system
print "$(fx[225])"
-0.40091714861475435949
print "$(fy[225])"
15.188765809140566176
print "$(fz[225])"
-6.3005444736055915556
info system
info system
print "$(fx[226])"
-0.11292297669180131892
print "$(fy[226])"
-7.6793139833801085103
print "$(fz[226])"
-1.2866662065792477954
info system
info system
print "$(fx[227])"
-2.2809366940965469794
print "$(fy[227])"
-3.1913999097348884071
print "$(fz[227])"
7.004152873160723658
info system
info system
print "$(fx[228])"
3.1784629710454104234
print "$(fy[228])"
-1.5736652762487219892
print "$(fz[228])"
5.5971577479749079487
info system
info system
print "$(fx[229])"
-1.5247360156620466398
print "$(fy[229])"
0.19300898105635944102
print "$(fz[229])"
0.13054504816164241854
info system
info system
print "$(fx[230])"
19.393065502951778001
print "$(fy[230])"
-3.4858078908269884977
print "$(fz[230])"
-4.5240881715529663865
info system
info system
print "$(fx[231])"
1.1619940970330118191
print "$(fy[231])"
0.50583084296130220725
print "$(fz[231])"
1.6562051785362121858
info system
info system
print "$(fx[232])"
-0.13062046256334541861
print "$(fy[232])"
5.5574614290731707555
print "$(fz[232])"
6.0683276103950190006
info system
info system
print "$(fx[233])"
1.7511546399756305892
print "$(fy[233])"
3.1311414800473893472
print "$(fz[233])"
1.0873819668207986844
info system
info system
print "$(fx[234])"
-0.52084032578924188694
print "$(fy[234])"
2.0813079666197817907
print "$(fz[234])"
-5.1721282034903151015
info system
info system
print "$(fx[235])"
0.96846561889800597545
print "$(fy[235])"
-1.8308873799648670566
print "$(fz[235])"
-0.36334977906591348074
info system
info system
print "$(fx[236])"
2.1400099198453155225
print "$(fy[236])"
2.9726378176960985833
print "$(fz[236])"
-0.88607376126255055215
info system
info system
print "$(fx[237])"
-4.5004011919602282532
print "$(fy[237])"
1.6177573240208877881
print "$(fz[237])"
2.8698177921153589232
info system
info system
print "$(fx[238])"
0.55777583686298226606
print "$(fy[238])"
1.9890345043271853154
print "$(fz[238])"
7.0837951985535836386
info system
info system
print "$(fx[239])"
-9.0476854642467419154
print "$(fy[239])"
-6.1031061421858430194
print "$(fz[239])"
-2.0895816543448435532
info system
info system
print "$(fx[240])"
0.13059384899088516407
print "$(fy[240])"
-1.3823162171402088028
print "$(fz[240])"
-1.5678172129484377884
info system
info system
print "$(fx[241])"
-0.68639658813145576488
print "$(fy[241])"
-3.1610165415554978274
print "$(fz[241])"
2.464715403396027682
info system
info system
print "$(fx[242])"
-2.4646861538646138712
print "$(fy[242])"
5.6936915679636479481
print "$(fz[242])"
-20.413110917675442835
info system
info system
print "$(fx[243])"
-1.7855466966544046858
print "$(fy[243])"
2.4598675247187107296
print "$(fz[243])"
2.3375921801757244545
info system
info system
print "$(fx[244])"
-2.0251367680091005852
print "$(fy[244])"
3.2715915915658113633
print "$(fz[244])"
-10.896141430288910357
info system
info system
print "$(fx[245])"
1.813091868418092556
print "$(fy[245])"
0.80210840112770676047
print "$(fz[245])"
12.20347216283300007
info system
info system
print "$(fx[246])"
0.54990732687459498162
print "$(fy[246])"
-0.78999918735416307936
print "$(fz[246])"
-2.1322288957535975307
info system
info system
print "$(fx[247])"
-2.5920435858175236987
print "$(fy[247])"
-1.0460545660971007909
print "$(fz[247])"
0.92412398356068781169
info system
info system
print "$(fx[248])"
-0.9679922552893686083
print "$(fy[248])"
1.5316277265808433405
print "$(fz[248])"
0.61877329848842488325
info system
info system
print "$(fx[249])"
2.1068613012922265959
print "$(fy[249])"
-11.3525909910169851
print "$(fz[249])"
3.7184218237964010711
info system
info system
print "$(fx[250])"
-1.2853439188203084065
print "$(fy[250])"
1.7978734195234520321
print "$(fz[250])"
0.24060858410419314057
info system
info system
print "$(fx[251])"
-1.1191376250747984145
print "$(fy[251])"
2.1101959445970064344
print "$(fz[251])"
1.1179068827065388181
info system
info system
print "$(fx[252])"
1.4931767256157963963
print "$(fy[252])"
-0.54367715932126714495
print "$(fz[252])"
-0.47315371099384656572
info system
info system
print "$(fx[253])"
0.84068005944467272261
print "$(fy[253])"
-1.0836898291275962602
print "$(fz[253])"
-0.95746813444631873047
info system
info system
print "$(fx[254])"
-1.3959400465187612461
print "$(fy[254])"
2.0074794977540633134
print "$(fz[254])"
-0.076593004203084846804
info system
info system
print "$(fx[255])"
-6.9867882185875345158
print "$(fy[255])"
11.730513077025104707
print "$(fz[255])"
-5.7816534427643553329
info system
info system
print "$(fx[256])"
5.2283038506066965567
print "$(fy[256])"
-0.85955754451542676353
print "$(fz[256])"
-3.3479716680222235681
info system
info system
print "$(fx[257])"
-1.9186157711534412851
print "$(fy[257])"
-1.0240498793678649569
print "$(fz[257])"
3.43689197513632827
info system
info system
print "$(fx[258])"
-1.5454207734162694887
print "$(fy[258])"
-0.75765932402433089354
print "$(fz[258])"
2.6208283247965988849
info system
info system
print "$(fx[259])"
1.0214165883337269491
print "$(fy[259])"
-15.281698577600234756
print "$(fz[259])"
-11.958888083983882922
info system
info system
print "$(fx[260])"
-6.0373866054110072454
print "$(fy[260])"
-1.7830101217107110489
print "$(fz[260])"
4.9298064689285245876
info system
info system
print "$(fx[261])"
0.92992556933634085148
print "$(fy[261])"
-3.2251875986409523911
print "$(fz[261])"
3.873768084419707769
info system
info system
print "$(fx[262])"
4.334885053616092776
print "$(fy[262])"
-3.5725159210188994763
print "$(fz[262])"
10.055085020215999592
info system
info system
print "$(fx[263])"
0.048091056320310132666
print "$(fy[263])"
-4.6015741515719872368
print "$(fz[263])"
-0.38932754494383364774
info system
info system
print "$(fx[264])"
-0.73383394119535416689
print "$(fy[264])"
-3.1126923729598976465
print "$(fz[264])"
-2.8278946049775801619
info system
info system
print "$(fx[265])"
3.7048351188559660585
print "$(fy[265])"
3.986498935499282581
print "$(fz[265])"
-10.808776678501109458
info system
info system
print "$(fx[266])"
1.879995836185636815
print "$(fy[266])"
-0.44408948352195815046
print "$(fz[266])"
-0.71057706656083108321
info system
info system
print "$(fx[267])"
-0.10882236578627581258
print "$(fy[267])"
0.38495140948274436665
print "$(fz[267])"
1.9488888239202801778
info system
info system
print "$(fx[268])"
-8.8407840239905794988
print "$(fy[268])"
-4.9793213149586854627
print "$(fz[268])"
7.1092980729094836789
info system
info system
print "$(fx[269])"
1.6650185529645360472
print "$(fy[269])"
-2.7027482570683400986
print "$(fz[269])"
6.1455177224103945122
info system
info system
print "$(fx[270])"
1.4885004842889544285
print "$(fy[270])"
6.5007649242561829084
print "$(fz[270])"
-7.1371922778398397824
info system
info system
print "$(fx[271])"
-3.6262208985311712439
print "$(fy[271])"
14.967783646885681748
print "$(fz[271])"
-1.1608590463792880509
info system
info system
print "$(fx[272])"
1.4381066275152263323
print "$(fy[272])"
1.0236073809425461079
print "$(fz[272])"
-5.926095242154345577
info system
info system
print "$(fx[273])"
-0.31128048262228985577
print "$(fy[273])"
-0.94126589219310141665
print "$(fz[273])"
10.146094698213191876
info system
info system
print "$(fx[274])"
23.935191313932126178
print "$(fy[274])"
-9.5853884307340155857
print "$(fz[274])"
2.3040041695167881031
info system
info system
print "$(fx[275])"
-4.4657832603123832627
print "$(fy[275])"
13.433482388424833331
print "$(fz[275])"
-2.9018104325896336704
info system
info system
print "$(fx[276])"
-15.248789863139421641
print "$(fy[276])"
9.1448252526331028633
print "$(fz[276])"
-1.3980166366056168137
info system
info system
print "$(fx[277])"
-1.575825942259156065
print "$(fy[277])"
-16.485747792938319378
print "$(fz[277])"
12.808541491520609057
info system
info system
print "$(fx[278])"
8.8145285634094197036
print "$(fy[278])"
-0.415838586184540282
print "$(fz[278])"
-3.0240987271728005936
info system
info system
print "$(fx[279])"
1.7494018520031475727
print "$(fy[279])"
-0.87127695275546102049
print "$(fz[279])"
-0.6199671565984878896
info system
info system
print "$(fx[280])"
-0.44551091085725913477
print "$(fy[280])"
-0.098138775851558016083
print "$(fz[280])"
-0.79170081913747825109
info system
info system
print "$(fx[281])"
-1.3498131734777223389
print "$(fy[281])"
-1.2426706472321280561
print "$(fz[281])"
1.7680239615951895971
info system
info system
print "$(fx[282])"
0.2296401621878963184
print "$(fy[282])"
0.46513840259731809024
print "$(fz[282])"
-8.497767073083300815
info system
info system
print "$(fx[283])"
0.0789610026744718696
print "$(fy[283])"
-3.4579117728615371696
print "$(fz[283])"
-1.8015857160497812384
info system
info system
print "$(fx[284])"
3.7980632879896432108
print "$(fy[284])"
0.5553771784018639579
print "$(fz[284])"
4.4100648534718329685
info system
info system
print "$(fx[285])"
-11.694558392472719888
print "$(fy[285])"
-9.0575188312156598158
print "$(fz[285])"
-0.55718330697314200073
info system
info system
print "$(fx[286])"
-1.8299331620633931816
print "$(fy[286])"
-0.5054031794966759028
print "$(fz[286])"
0.81388129911864459665
info system
info system
print "$(fx[287])"
3.6704035654421902635
print "$(fy[287])"
-0.068193458157760178384
print "$(fz[287])"
1.6428254039102823114
info system
info system
print "$(fx[288])"
28.506446232261684059
print "$(fy[288])"
17.266350469167914383
print "$(fz[288])"
-14.663189519025907614
info system
info system
print "$(fx[289])"
4.4892094424085291493
print "$(fy[289])"
5.080793338629231215
print "$(fz[289])"
5.5927674568940739519
info system
info system
print "$(fx[290])"
-5.0517121558681958859
print "$(fy[290])"
3.0312907980731700341
print "$(fz[290])"
5.3388685811487448518
info system
info system
print "$(fx[291])"
-11.116249614532405232
print "$(fy[291])"
-36.409265686005518603
print "$(fz[291])"
-8.907567193276866746
info system
info system
print "$(fx[292])"
5.5510334634597011672
print "$(fy[292])"
13.076906124797003983
print "$(fz[292])"
-11.355719074865669782
info system
info system
print "$(fx[293])"
-4.0974662111883182192
print "$(fy[293])"
-1.0158387387495895204
print "$(fz[293])"
-1.6715716840739416327
info system
info system
print "$(fx[294])"
-14.966699212365767835
print "$(fy[294])"
-8.6365812336671403671
print "$(fz[294])"
14.169210003380818819
info system
info system
print "$(fx[295])"
7.449510095395210918
print "$(fy[295])"
8.0571649046772382263
print "$(fz[295])"
6.241452234768745555
info system
info system
print "$(fx[296])"
-6.2869714903029683128
print "$(fy[296])"
-2.9300254639776190935
print "$(fz[296])"
0.010113221065019224743
info system
info system
print "$(fx[297])"
-6.9261976836202023833
print "$(fy[297])"
1.1864348424112136637
print "$(fz[297])"
-0.15825731914144613999
info system
info system
print "$(fx[298])"
10.162048857537278934
print "$(fy[298])"
0.73832673061989184671
print "$(fz[298])"
-4.972845796014924602
info system
info system
print "$(fx[299])"
-3.0665188501509033081
print "$(fy[299])"
-6.9519020595936273921
print "$(fz[299])"
8.8576559929469738108
info system
info system
print "$(fx[300])"
0.62763470641444907283
print "$(fy[300])"
1.3250676805950900583
print "$(fz[300])"
0.34908206837247207632
info system
info system
print "$(fx[301])"
1.4169980726470208232
print "$(fy[301])"
-16.13536613214775528
print "$(fz[301])"
-4.7961196559579182264
info system
info system
print "$(fx[302])"
-2.1234656088880194957
print "$(fy[302])"
-0.5276544914986632806
print "$(fz[302])"
-2.7010974734884207749
info system
info system
print "$(fx[303])"
-3.3286367621580095211
print "$(fy[303])"
-1.4535475971866498313
print "$(fz[303])"
0.59520068594799335759
info system
info system
print "$(fx[304])"
8.4103978956714460224
print "$(fy[304])"
-19.315201090173182763
print "$(fz[304])"
1.1898611594278973858
info system
info system
print "$(fx[305])"
-1.1237334632454769601
print "$(fy[305])"
0.42796723099343864094
print "$(fz[305])"
-12.641379802642527252
info system
info system
print "$(fx[306])"
-21.438507509151278896
print "$(fy[306])"
11.11531481406868771
print "$(fz[306])"
-14.099054106799746577
info system
info system
print "$(fx[307])"
0.41176526625873199894
print "$(fy[307])"
0.12465176232973938786
print "$(fz[307])"
1.2048853068221048179
info system
info system
print "$(fx[308])"
9.2509393451323251867
print "$(fy[308])"
1.4551035068048556731
print "$(fz[308])"
-1.7259444512856298992
info system
info system
print "$(fx[309])"
7.3428956062062926691
print "$(fy[309])"
-2.5684353595269087123
print "$(fz[309])"
-0.7512057496908334242
info system
info system
print "$(fx[310])"
-7.8498352532986581664
print "$(fy[310])"
-3.2041989484502697572
print "$(fz[310])"
9.6529705283527142967
info system
info system
print "$(fx[311])"
-3.8506526597066392803
print "$(fy[311])"
0.47814794761931744826
print "$(fz[311])"
1.3350978413258496325
info system
info system
print "$(fx[312])"
-6.2163044509770166712
print "$(fy[312])"
-2.4508942310108823293
print "$(fz[312])"
6.3281912399960553728
info system
info system
print "$(fx[313])"
0.18622222464072035741
print "$(fy[313])"
0.57176758272186289922
print "$(fz[313])"
0.34971119983665110986
info system
info system
print "$(fx[314])"
0.19685955420411996308
print "$(fy[314])"
-0.62129467571076357757
print "$(fz[314])"
0.99861001597512155659
info system
info system
print "$(fx[315])"
0.37807262380037542915
print "$(fy[315])"
2.3658496255223875337
print "$(fz[315])"
-2.0394192084099365125
info system
info system
print "$(fx[316])"
2.5517054542925965421
print "$(fy[316])"
-0.96357541072878494237
print "$(fz[316])"
-4.7576088392190687415
info system
info system
print "$(fx[317])"
-0.66889534820446416852
print "$(fy[317])"
1.8462519926635418965
print "$(fz[317])"
-1.7901897125461283533
info system
info system
print "$(fx[318])"
0.53656033382930690134
print "$(fy[318])"
-0.30742649455725068464
print "$(fz[318])"
-0.12325125876903086919
info system
info system
print "$(fx[319])"
0.31204609354897810958
print "$(fy[319])"
-1.5863467367533192753
print "$(fz[319])"
-0.57561442543332974608
info system
info system
print "$(fx[320])"
-5.837578090513400042
print "$(fy[320])"
1.0365135049931131217
print "$(fz[320])"
2.8219793201086531553
info system
info system
print "$(fx[321])"
-5.5072369402994825194
print "$(fy[321])"
13.143540769534364898
print "$(fz[321])"
-5.4010224193619427169
info system
info system
print "$(fx[322])"
6.5730875074189585305
print "$(fy[322])"
-2.0417151756608644675
print "$(fz[322])"
14.572096846290422789
info system
info system
print "$(fx[323])"
1.0421533466976424798
print "$(fy[323])"
3.7055336635787470279
print "$(fz[323])"
6.1943100488483793242
info system
info system
print "$(fx[324])"
7.3858593176640150446
print "$(fy[324])"
2.4818575964210265461
print "$(fz[324])"
-19.315264546414862679
info system
info system
print "$(fx[325])"
0.18876499884297612275
print "$(fy[325])"
2.4754710199012324168
print "$(fz[325])"
-2.4506160849314255756
info system
info system
print "$(fx[326])"
4.1830400599787624927
print "$(fy[326])"
-6.2670574425011240649
print "$(fz[326])"
-4.4209000858837006476
info system
info system
print "$(fx[327])"
-1.5429294010793990211
print "$(fy[327])"
-0.21877763819426768177
print "$(fz[327])"
-1.5642244435345944442
info system
info system
print "$(fx[328])"
-0.96096599992380749011
print "$(fy[328])"
-1.0323718961371570746
print "$(fz[328])"
0.60474409573279153118
info system
info system
print "$(fx[329])"
2.0644689773146280842
print "$(fy[329])"
5.9960151320262804475
print "$(fz[329])"
-2.0119346598351786071
info system
info system
print "$(fx[330])"
2.7227687684114507682
print "$(fy[330])"
-4.6888278008217509907
print "$(fz[330])"
5.1832490947871079356
info system
info system
print "$(fx[331])"
-6.2937383880478421361
print "$(fy[331])"
-10.229309785183161807
print "$(fz[331])"
0.33131909020064648219
info system
info system
print "$(fx[332])"
2.01583403087491142
print "$(fy[332])"
1.6810792838358279422
print "$(fz[332])"
6.132508845926835761
info system
info system
print "$(fx[333])"
0.27545572816970348429
print "$(fy[333])"
-0.084364514291541889413
print "$(fz[333])"
11.018946398824180477
info system
info system
print "$(fx[334])"
1.2745809417969122812
print "$(fy[334])"
4.737529824755522867
print "$(fz[334])"
-1.8528798674989364059
info system
info system
print "$(fx[335])"
4.2844963694230902007
print "$(fy[335])"
-10.870183574670273075
print "$(fz[335])"
-16.038110845437529406
info system
info system
print "$(fx[336])"
0.18147973790202703848
print "$(fy[336])"
3.7678337660385992081
print "$(fz[336])"
-2.1128987287238074622
info system
info system
print "$(fx[337])"
2.3744893960158424129
print "$(fy[337])"
3.5233349505484659048
print "$(fz[337])"
3.365534077101022703
info system
info system
print "$(fx[338])"
-2.4247838095931975033
print "$(fy[338])"
2.3340163024901321442
print "$(fz[338])"
8.030512896917221255
info system
info system
print "$(fx[339])"
3.9108643084893190967
print "$(fy[339])"
-1.1491289190597171466
print "$(fz[339])"
0.022316781615646291703
info system
info system
print "$(fx[340])"
-12.035733463222380024
print "$(fy[340])"
3.9354053945005973425
print "$(fz[340])"
0.7474285221845828886
info system
info system
print "$(fx[341])"
12.230971771211530452
print "$(fy[341])"
-6.2334503180727507399
print "$(fz[341])"
-6.4051275480761153958
info system
info system
print "$(fx[342])"
-0.26260281104719529477
print "$(fy[342])"
-5.3939789486630713711
print "$(fz[342])"
1.8789040221776445172
info system
info system
print "$(fx[343])"
-0.63209002585763407467
print "$(fy[343])"
0.70549084612786761017
print "$(fz[343])"
-0.23284820354996974001
info system
info system
print "$(fx[344])"
12.189784820881172323
print "$(fy[344])"
-7.9800735941057610034
print "$(fz[344])"
1.9635554400306449718
info system
info system
print "$(fx[345])"
1.6197938945084549012
print "$(fy[345])"
0.78217127128549779336
print "$(fz[345])"
0.95215197426512276913
info system
info system
print "$(fx[346])"
8.0797926807764941515
print "$(fy[346])"
-1.6933604121450760438
print "$(fz[346])"
3.8305026939143562714
info system
info system
print "$(fx[347])"
3.9793183411800492344
print "$(fy[347])"
10.810101869606265623
print "$(fz[347])"
1.8056186733562467062
info system
info system
print "$(fx[348])"
-12.486188839207754242
print "$(fy[348])"
27.377461164984406849
print "$(fz[348])"
-3.2977913251091157676
info system
info system
print "$(fx[349])"
-3.8770560221006764579
print "$(fy[349])"
-8.0784972350166395216
print "$(fz[349])"
1.9389756212559530191
info system
info system
print "$(fx[350])"
8.6702497665636144575
print "$(fy[350])"
-2.2286784332988824886
print "$(fz[350])"
4.6134423620777704755
info system
info system
print "$(fx[351])"
3.2229766981095195888
print "$(fy[351])"
-1.4736173961141605382
print "$(fz[351])"
1.9438609031415647888
info system
info system
print "$(fx[352])"
2.2123516716548174976
print "$(fy[352])"
-0.32545108459145016822
print "$(fz[352])"
-1.0458994463330677505
info system
info system
print "$(fx[353])"
-1.5440122125639128559
print "$(fy[353])"
0.38841265643484779169
print "$(fz[353])"
-0.68986867526707762455
info system
info system
print "$(fx[354])"
0.49527500797548640321
print "$(fy[354])"
0.69450725763094056653
print "$(fz[354])"
0.27427312767861666831
info system
info system
print "$(fx[355])"
-4.7489816236453910037
print "$(fy[355])"
2.0505174775546164412
print "$(fz[355])"
0.38858570180573737129
info system
info system
print "$(fx[356])"
-3.5985263045445563534
print "$(fy[356])"
1.7071447110668644953
print "$(fz[356])"
-1.2620616677677654049
info system
info system
print "$(fx[357])"
-6.3811727954124490836
print "$(fy[357])"
-1.4005162364419316834
print "$(fz[357])"
6.8197008219391035411
info system
info system
print "$(fx[358])"
-12.296062231817295185
print "$(fy[358])"
-1.3582913878292213194
print "$(fz[358])"
1.6929802452083162478
info system
info system
print "$(fx[359])"
-13.848441929848725351
print "$(fy[359])"
2.7730917680700590822
print "$(fz[359])"
-15.898339699489948629
info system
info system
print "$(fx[360])"
5.7517264024658807386
print "$(fy[360])"
-7.9355540570063691774
print "$(fz[360])"
1.7970008960564991529
info system
info system
print "$(fx[361])"
2.6379452466790316301
print "$(fy[361])"
-3.329702766327723662
print "$(fz[361])"
13.024392872366709284
info system
info system
print "$(fx[362])"
-0.098689048279071101
print "$(fy[362])"
-0.164394375409796345
print "$(fz[362])"
2.7460186709289562401
info system
info system
print "$(fx[363])"
1.5298822672436420689
print "$(fy[363])"
1.7073466194344952829
print "$(fz[363])"
-1.7112034774611033505
info system
info system
print "$(fx[364])"
-0.14067175982442256532
print "$(fy[364])"
0.32975509924282325747
print "$(fz[364])"
0.75661968313398364483
info system
info system
print "$(fx[365])"
1.4349772403296250367
print "$(fy[365])"
1.4090537812199150913
print "$(fz[365])"
-0.077883538783181299747
info system
info system
print "$(fx[366])"
-0.46953403560486151047
print "$(fy[366])"
0.075520077946782324108
print "$(fz[366])"
-0.95882617676808357121
info system
info system
print "$(fx[367])"
0.795162954467432459
print "$(fy[367])"
-1.5102766739275235164
print "$(fz[367])"
-0.85190112899152792281
info system
info system
print "$(fx[368])"
2.4055206086899905138
print "$(fy[368])"
7.4791196355207230084
print "$(fz[368])"
0.7978231051155709741
info system
info system
print "$(fx[369])"
4.3680546731434830576
print "$(fy[369])"
-3.0004359138290714881
print "$(fz[369])"
5.5871419403592605946
info system
info system
print "$(fx[370])"
-1.5333620631768098974
print "$(fy[370])"
-14.955063794171369551
print "$(fz[370])"
-6.8051065434808695187
info system
info system
print "$(fx[371])"
3.9285631201068156315
print "$(fy[371])"
-3.2134185542128252955
print "$(fz[371])"
3.2647559748057095597
info system
info system
print "$(fx[372])"
-1.3676576199814207691
print "$(fy[372])"
2.7235602051949223679
print "$(fz[372])"
5.6902275058568401178
info system
info system
print "$(fx[373])"
-3.4720160559038228953
print "$(fy[373])"
9.1533634562111778621
print "$(fz[373])"
-3.3944968907010006909
info system
info system
print "$(fx[374])"
1.9244535574987688964
print "$(fy[374])"
1.2489888473088970322
print "$(fz[374])"
-1.7179334540636921336
info system
info system
print "$(fx[375])"
0.77744180252213457294
print "$(fy[375])"
0.42129273825143792598
print "$(fz[375])"
0.34446246009664788224
info system
info system
print "$(fx[376])"
-6.7030154862224984313
print "$(fy[376])"
-6.8488015212673776233
print "$(fz[376])"
5.1882093878032016221
info system
info system
print "$(fx[377])"
0.69181699005497176991
print "$(fy[377])"
0.47239085824068516306
print "$(fz[377])"
0.55764562530371275528
info system
info system
print "$(fx[378])"
1.8458690494304395013
print "$(fy[378])"
-0.14256169763455744937
print "$(fz[378])"
0.88603464505890816572
info system
info system
print "$(fx[379])"
-3.1759261139888090852
print "$(fy[379])"
5.6191320260150199317
print "$(fz[379])"
-10.263653864727270815
info system
info system
print "$(fx[380])"
0.29489312985083621088
print "$(fy[380])"
0.25474542065952821002
print "$(fz[380])"
-1.4729399642189242581
info system
info system
print "$(fx[381])"
0.68685648754893469103
print "$(fy[381])"
1.0831034207997431995
print "$(fz[381])"
0.048456829128421932684
info system
info system
print "$(fx[382])"
0.70359429991767763468
print "$(fy[382])"
-1.221012224017645309
print "$(fz[382])"
10.286311770170495805
info system
info system
print "$(fx[383])"
3.0703475563318667341
print "$(fy[383])"
1.2470192788199980782
print "$(fz[383])"
0.96754762567616947599
info system
info system
print "$(fx[384])"
1.8075131267356674414
print "$(fy[384])"
3.7225439749870807837
print "$(fz[384])"
-0.69190524464419267403
info system
info system
print "$(fx[385])"
-15.490195806397338174
print "$(fy[385])"
26.07316330878825994
print "$(fz[385])"
-1.4925356378770999743
info system
info system
print "$(fx[386])"
2.3020928265243836286
print "$(fy[386])"
-6.326874204006145419
print "$(fz[386])"
-7.3910057672692923703
info system
info system
print "$(fx[387])"
2.194390507527244516
print "$(fy[387])"
7.1000586144722186432
print "$(fz[387])"
4.5867811822242856579
info system
info system
print "$(fx[388])"
6.9269221975919936796
print "$(fy[388])"
-39.879610850445558867
print "$(fz[388])"
3.4966787414695374991
info system
info system
print "$(fx[389])"
6.0266302771465438681
print "$(fy[389])"
0.9205560691504388604
print "$(fz[389])"
-1.0464489641741221426
info system
info system
print "$(fx[390])"
-5.8906546710223821606
print "$(fy[390])"
0.49578368728557364875
print "$(fz[390])"
4.8488919987038725523
info system
info system
print "$(fx[391])"
7.1005001762022921241
print "$(fy[391])"
5.9532121035664271602
print "$(fz[391])"
-31.925913932757261193
info system
info system
print "$(fx[392])"
-4.6979410025677061924
print "$(fy[392])"
0.85204265730651673749
print "$(fz[392])"
4.9974522603891280426
info system
info system
print "$(fx[393])"
1.0325453648569813403
print "$(fy[393])"
-0.17841582622642918055
print "$(fz[393])"
4.8893624101196033749
info system
info system
print "$(fx[394])"
-0.66500513952444240129
print "$(fy[394])"
5.4917926211528449443
print "$(fz[394])"
6.0036106174303336402
info system
info system
print "$(fx[395])"
12.368810735948688517
print "$(fy[395])"
7.9961335503170447581
print "$(fz[395])"
0.10763210387286886727
info system
info system
print "$(fx[396])"
-0.93750468214946458545
print "$(fy[396])"
0.64955895171523048148
print "$(fz[396])"
1.6143708725763736833
info system
info system
print "$(fx[397])"
-2.4024797993379278793
print "$(fy[397])"
1.3912514238421613832
print "$(fz[397])"
-4.1136473144782392808
info system
info system
print "$(fx[398])"
-7.9896882669216600092
print "$(fy[398])"
-18.332151942986136817
print "$(fz[398])"
3.2805953109144154745
info system
info system
print "$(fx[399])"
-5.0688507375848779191
print "$(fy[399])"
4.6966528688305206884
print "$(fz[399])"
1.3570751366974460606
info system
info system
print "$(fx[400])"
-0.32838853522838351573
print "$(fy[400])"
0.66138385706661939611
print "$(fz[400])"
1.6042813967692344246
info system
info system
print "$(fx[401])"
21.121765155661083924
print "$(fy[401])"
9.3532606191369822568
print "$(fz[401])"
-16.578687187644820966
info system
info system
print "$(fx[402])"
-10.991724698317042908
print "$(fy[402])"
-8.0689400786449319014
print "$(fz[402])"
-0.62364248241364750314
info system
info system
print "$(fx[403])"
-13.822124301888875308
print "$(fy[403])"
-14.740778104951296257
print "$(fz[403])"
-1.2665332646128413252
info system
info system
print "$(fx[404])"
-8.5036035892968016014
print "$(fy[404])"
-4.594074228177929875
print "$(fz[404])"
-4.602651653588062608
info system
info system
print "$(fx[405])"
2.2455926427653727373
print "$(fy[405])"
4.9280475391229625615
print "$(fz[405])"
7.2577488388329838287
info system
info system
print "$(fx[406])"
-10.155975926841639634
print "$(fy[406])"
-8.5038074473040001777
print "$(fz[406])"
-12.167121423406664249
info system
info system
print "$(fx[407])"
-1.9763667410585150641
print "$(fy[407])"
2.3391334177274361039
print "$(fz[407])"
3.5411041712028454853
info system
info system
print "$(fx[408])"
-3.5788380735930922505
print "$(fy[408])"
-4.9825459365493420805
print "$(fz[408])"
7.6309352032961372814
info system
info system
print "$(fx[409])"
-0.07637390353757772532
print "$(fy[409])"
1.5197068819858623456
print "$(fz[409])"
2.2195970397643520755
info system
info system
print "$(fx[410])"
2.2449389213171970781
print "$(fy[410])"
4.3846446538179142394
print "$(fz[410])"
-4.5046797949817580786
info system
info system
print "$(fx[411])"
0.94963795791946559177
print "$(fy[411])"
-2.1542019827192788739
print "$(fz[411])"
-0.96782751485046381035
info system
info system
print "$(fx[412])"
2.3149801555581239754
print "$(fy[412])"
-0.20741652929436416031
print "$(fz[412])"
-0.84460650906794298987
info system
info system
print "$(fx[413])"
-0.4588230779930779768
print "$(fy[413])"
12.291407322214851661
print "$(fz[413])"
0.84041526301939262211
info system
info system
print "$(fx[414])"
4.0580178087406020282
print "$(fy[414])"
6.8530640547962970999
print "$(fz[414])"
7.7463768809828348338
info system
info system
print "$(fx[415])"
-18.100745824576883081
print "$(fy[415])"
-25.15760114792612967
print "$(fz[415])"
-11.030587179074561988
info system
info system
print "$(fx[416])"
5.7124058418012673144
print "$(fy[416])"
4.3473178025266916435
print "$(fz[416])"
4.3495599171265970639
info system
info system
print "$(fx[417])"
1.9836669674773852456
print "$(fy[417])"
13.113805425995192167
print "$(fz[417])"
-1.1991936049739995163
info system
info system
print "$(fx[418])"
-12.696421391700214443
print "$(fy[418])"
-2.1430880424038285526
print "$(fz[418])"
3.2319764612902188716
info system
info system
print "$(fx[419])"
4.6345867292946092419
print "$(fy[419])"
1.9599964473664970299
print "$(fz[419])"
-2.1792049932455266337
info system
info system
print "$(fx[420])"
8.8327660146697439814
print "$(fy[420])"
-17.678256825330681323
print "$(fz[420])"
4.6577564870426053645
info system
info system
print "$(fx[421])"
0.10807549965050422536
print "$(fy[421])"
2.6431945149237732196
print "$(fz[421])"
0.49851782654343568257
info system
info system
print "$(fx[422])"
0.88520405393740964062
print "$(fy[422])"
-5.8645373265512583671
print "$(fz[422])"
5.6215083893569826046
info system
info system
print "$(fx[423])"
-1.9058092874058329969
print "$(fy[423])"
2.6652587846606947686
print "$(fz[423])"
7.5012005828898269399
info system
info system
print "$(fx[424])"
3.1985345853809836747
print "$(fy[424])"
15.232295603828138297
print "$(fz[424])"
-9.7148973582086828316
info system
info system
print "$(fx[425])"
4.4686450550838019424
print "$(fy[425])"
-1.9634199632649176337
print "$(fz[425])"
-0.67390833037008035511
info system
info system
print "$(fx[426])"
-2.4707748643517706277
print "$(fy[426])"
-0.9845785792800112457
print "$(fz[426])"
-6.5996530770991910231
info system
info system
print "$(fx[427])"
-19.724590933834647899
print "$(fy[427])"
-2.9904991106477467611
print "$(fz[427])"
26.123391034121972609
info system
info system
print "$(fx[428])"
16.477820382865505877
print "$(fy[428])"
-13.181650852290525577
print "$(fz[428])"
-29.638200056953916572
info system
info system
print "$(fx[429])"
-10.077373573549465391
print "$(fy[429])"
-8.4019878822707756427
print "$(fz[429])"
12.757678981174471744
info system
info system
print "$(fx[430])"
3.1053705756207343747
print "$(fy[430])"
8.6082400566619341475
print "$(fz[430])"
0.32275023271467545571
info system
info system
print "$(fx[431])"
2.2227224602928639108
print "$(fy[431])"
-11.681743785130297653
print "$(fz[431])"
19.422567654982529461
info system
info system
print "$(fx[432])"
-3.7559603370942991063
print "$(fy[432])"
-2.5823768261019743875
print "$(fz[432])"
0.83654748723293659296
info system
info system
print "$(fx[433])"
5.7072392801483537994
print "$(fy[433])"
23.917541901864588283
print "$(fz[433])"
-8.6107817389122640606
info system
info system
print "$(fx[434])"
3.5032144179733952782
print "$(fy[434])"
-7.1443425322145666101
print "$(fz[434])"
-3.9529017407349971158
info system
info system
print "$(fx[435])"
12.042994047810946512
print "$(fy[435])"
4.7029186018538977621
print "$(fz[435])"
-6.0973100300602265378
info system
info system
print "$(fx[436])"
2.4129354626383943128
print "$(fy[436])"
0.73978367101581765652
print "$(fz[436])"
0.092306655694046543803
info system
info system
print "$(fx[437])"
9.5789804656532986371
print "$(fy[437])"
5.5930210540150149257
print "$(fz[437])"
-4.2598159963669957051
info system
info system
print "$(fx[438])"
-0.16165700446572239812
print "$(fy[438])"
0.99819483471572190147
print "$(fz[438])"
-2.3021190113225826757
info system
info system
print "$(fx[439])"
0.20157458811858575132
print "$(fy[439])"
-4.9847082927553731935
print "$(fz[439])"
7.2066042516372226245
info system
info system
print "$(fx[440])"
-0.41662536885028372824
print "$(fy[440])"
-5.6402020187290613507
print "$(fz[440])"
-2.2211968625971918456
info system
info system
print "$(fx[441])"
-3.7977195617089276602
print "$(fy[441])"
2.2955921849128393397
print "$(fz[441])"
5.5821138254740114704
info system
info system
print "$(fx[442])"
1.1619301360928149247
print "$(fy[442])"
4.0263116987032745442
print "$(fz[442])"
-2.8782996657162458476
info system
info system
print "$(fx[443])"
-1.860592412997896572
print "$(fy[443])"
-0.11119057852673072673
print "$(fz[443])"
0.25488128270660809216
info system
info system
print "$(fx[444])"
5.7796662482262197713
print "$(fy[444])"
-4.6236301858339921012
print "$(fz[444])"
5.3408633647486922769
info system
info system
print "$(fx[445])"
-1.499263972635575648
print "$(fy[445])"
0.95890519515573291454
print "$(fz[445])"
0.077988215313542108564
info system
info system
print "$(fx[446])"
-2.4184772431484602428
print "$(fy[446])"
3.2243672804797198772
print "$(fz[446])"
-0.51223144707179901758
info system
info system
print "$(fx[447])"
-0.7456102364077319411
print "$(fy[447])"
0.40879332316710237372
print "$(fz[447])"
-0.74893849112475063823
info system
info system
print "$(fx[448])"
-1.6796257247190906625
print "$(fy[448])"
0.7258513141051617934
print "$(fz[448])"
-1.3493706070176016976
info system
info system
print "$(fx[449])"
0.033481067545017006992
print "$(fy[449])"
-0.16875205602136783556
print "$(fz[449])"
-0.37246142315674324319
info system
info system
print "$(fx[450])"
3.8221264474438143566
print "$(fy[450])"
-3.940082255386062382
print "$(fz[450])"
3.6324684287797754934
info system
info system
print "$(fx[451])"
-4.9403170392671320599
print "$(fy[451])"
6.3096360250898468891
print "$(fz[451])"
-2.6439726888146442008
info system
info system
print "$(fx[452])"
1.5162801810332506847
print "$(fy[452])"
0.75457484546159281358
print "$(fz[452])"
-0.58126018802096668381
info system
info system
print "$(fx[453])"
0.11985815831930968223
print "$(fy[453])"
-2.6672005125140740844
print "$(fz[453])"
0.14498283381469256881
info system
info system
print "$(fx[454])"
1.4829012850493237252
print "$(fy[454])"
6.6620828310684734319
print "$(fz[454])"
16.126309321315474676
info system
info system
print "$(fx[455])"
2.2336313564540155596
print "$(fy[455])"
2.7734154140443934011
print "$(fz[455])"
-15.315961518962874166
info system
info system
print "$(fx[456])"
14.798817770232750135
print "$(fy[456])"
-8.9296916396563865703
print "$(fz[456])"
-12.14335692747101092
info system
info system
print "$(fx[457])"
-15.303610956023755207
print "$(fy[457])"
-16.276692589922667764
print "$(fz[457])"
3.6219685108842716303
info system
info system
print "$(fx[458])"
3.2154463140973637003
print "$(fy[458])"
19.005948574673752205
print "$(fz[458])"
7.8909592410081810243
info system
info system
print "$(fx[459])"
-2.0436932868610147018
print "$(fy[459])"
2.5839633788562168526
print "$(fz[459])"
2.6755766612870637289
info system
info system
print "$(fx[460])"
13.320285033640661965
print "$(fy[460])"
-1.3422806312215029845
print "$(fz[460])"
-6.9016467132331573708
info system
info system
print "$(fx[461])"
-1.8173376889013168611
print "$(fy[461])"
0.89721788887148901104
print "$(fz[461])"
-0.50484127161664726913
info system
info system
print "$(fx[462])"
0.87105153472574270435
print "$(fy[462])"
-0.26300990588537009884
print "$(fz[462])"
-1.9168689477488427553
info system
info system
print "$(fx[463])"
-17.628836077495524393
print "$(fy[463])"
-7.1049254039622473655
print "$(fz[463])"
-10.663329703175996599
info system
info system
print "$(fx[464])"
7.7803165485544809599
print "$(fy[464])"
2.571088845577244264
print "$(fz[464])"
6.7961113720269308303
info system
info system
print "$(fx[465])"
-2.7801247560192892117
print "$(fy[465])"
-1.8443159601184084817
print "$(fz[465])"
3.9029187758780259365
info system
info system
print "$(fx[466])"
3.1904480481048960172
print "$(fy[466])"
-17.991339929716055224
print "$(fz[466])"
-16.482037160081308258
info system
info system
print "$(fx[467])"
1.4023675172449983073
print "$(fy[467])"
4.8305029836234201213
print "$(fz[467])"
14.121764697220143603
info system
info system
print "$(fx[468])"
-0.59050822042120132416
print "$(fy[468])"
-0.52906624736080853921
print "$(fz[468])"
0.46996382745377701662
info system
info system
print "$(fx[469])"
-5.6922192813514049803
print "$(fy[469])"
0.51356825733731659156
print "$(fz[469])"
-3.0422204409532036529
info system
info system
print "$(fx[470])"
0.74473693581634425875
print "$(fy[470])"
-1.7934033779746807458
print "$(fz[470])"
-0.27269754697152476242
info system
info system
print "$(fx[471])"
3.0229924361656879128
print "$(fy[471])"
-1.5604580629908801903
print "$(fz[471])"
9.0951557258177153642
info system
info system
print "$(fx[472])"
-1.9873063379516988647
print "$(fy[472])"
-0.068604596776657505997
print "$(fz[472])"
-0.73220061852527773549
info system
info system
print "$(fx[473])"
0.44541172363607572926
print "$(fy[473])"
-0.29856396885381619732
print "$(fz[473])"
1.3114988257267663485
info system
info system
print "$(fx[474])"
-3.5005095475546612604
print "$(fy[474])"
0.51010549838115704091
print "$(fz[474])"
9.2263161717395192341
info system
info system
print "$(fx[475])"
6.1685408646836217272
print "$(fy[475])"
-0.75090968526201962163
print "$(fz[475])"
2.1129822222870897619
info system
info system
print "$(fx[476])"
1.1722714223418058133
print "$(fy[476])"
-7.1923021947385601393
print "$(fz[476])"
-2.8598505535351397278
info system
info system
print "$(fx[477])"
-10.685248534859100644
print "$(fy[477])"
-6.3400374515475048653
print "$(fz[477])"
5.81545259171430029
info system
info system
print "$(fx[478])"
3.4912120629967686725
print "$(fy[478])"
2.36471964596566675
print "$(fz[478])"
-0.5356093951783132967
info system
info system
print "$(fx[479])"
-1.8289180861383158572
print "$(fy[479])"
3.7714573197852576669
print "$(fz[479])"
-17.679567496796032344
info system
info system
print "$(fx[480])"
0.099302727637360366231
print "$(fy[480])"
-1.2150819921261639678
print "$(fz[480])"
-1.8764047310136822144
info system
info system
print "$(fx[481])"
-6.2523185415746960203
print "$(fy[481])"
6.8843209869551120761
print "$(fz[481])"
3.9607077177710667826
info system
info system
print "$(fx[482])"
-0.39512745878947586053
print "$(fy[482])"
-2.1902113185834686249
print "$(fz[482])"
1.6756967250786156676
info system
info system
print "$(fx[483])"
-2.4889882131752001371
print "$(fy[483])"
-12.508263226903965304
print "$(fz[483])"
6.05966555242049143
info system
info system
print "$(fx[484])"
0.53495523521059873406
print "$(fy[484])"
-0.65533798796248443619
print "$(fz[484])"
1.6239791475933855747
info system
info system
print "$(fx[485])"
1.3908656269503487657
print "$(fy[485])"
-1.2016958507692359071
print "$(fz[485])"
-1.3431336365145063461
info system
info system
print "$(fx[486])"
7.9743135686503396897
print "$(fy[486])"
11.309897853753067665
print "$(fz[486])"
-4.56750239828086535
info system
info system
print "$(fx[487])"
2.5987569930388860762
print "$(fy[487])"
0.019564541185769501741
print "$(fz[487])"
-4.4225814832857883729
info system
info system
print "$(fx[488])"
0.94274879589737747843
print "$(fy[488])"
0.9651597684907734509
print "$(fz[488])"
-1.020628286408165053
info system
info system
print "$(fx[489])"
-4.1630366694493261548
print "$(fy[489])"
-7.7806937790084234052
print "$(fz[489])"
8.7664980592176142693
info system
info system
print "$(fx[490])"
2.7967097166510601625
print "$(fy[490])"
20.397750750388006225
print "$(fz[490])"
-3.7227052900941601798
info system
info system
print "$(fx[491])"
-6.1079030699036458429
print "$(fy[491])"
-12.549232922687858505
print "$(fz[491])"
-10.775207278078726247
info system
info system
print "$(fx[492])"
7.3482961427453989955
print "$(fy[492])"
2.4581050076233328383
print "$(fz[492])"
-8.3676900048919051756
info system
info system
print "$(fx[493])"
9.4189853967519550082
print "$(fy[493])"
-8.2212785805754649004
print "$(fz[493])"
7.5550474053192377966
info system
info system
print "$(fx[494])"
6.8758262746170499824
print "$(fy[494])"
13.013337785412289804
print "$(fz[494])"
-9.4782089877503761244
info system
info system
print "$(fx[495])"
0.93909250415359890596
print "$(fy[495])"
-1.7519875267950884012
print "$(fz[495])"
0.061473335483457014483
info system
info system
print "$(fx[496])"
8.6912478509169588392
print "$(fy[496])"
-0.77916274151449993468
print "$(fz[496])"
-3.7391811828249092997
info system
info system
print "$(fx[497])"
1.4988444243595968608
print "$(fy[497])"
-0.88071128268486109647
print "$(fz[497])"
0.61161538076452370838
info system
info system
print "$(fx[498])"
-0.02389034057891414875
print "$(fy[498])"
-5.1783106307792658995
print "$(fz[498])"
-2.594720415229065491
info system
info system
print "$(fx[499])"
1.5462685659598693899
print "$(fy[499])"
1.6786060432800271602
print "$(fz[499])"
2.194717978681194559
info system
info system
print "$(fx[500])"
0.59883938016494175915
print "$(fy[500])"
-0.5191118566167491899
print "$(fz[500])"
-3.2229785643058925793
info system
info system
print "$(fx[501])"
3.0825717668605499
print "$(fy[501])"
-1.2133241168583028813
print "$(fz[501])"
0.76845343328764714741
info system
info system
print "$(fx[502])"
3.3126630061357111856
print "$(fy[502])"
-11.877087234110300429
print "$(fz[502])"
6.7343937183384312561
info system
info system
print "$(fx[503])"
-1.9882891371801449942
print "$(fy[503])"
-11.138119966229835356
print "$(fz[503])"
-4.8141827331592690342
info system
info system
print "$(fx[504])"
3.0909279753381593281
print "$(fy[504])"
1.4026059720388888152
print "$(fz[504])"
2.6362154124007037836
info system
info system
print "$(fx[505])"
-0.79948522706022462359
print "$(fy[505])"
-2.0705053485162672189
print "$(fz[505])"
0.24242850914146041319
info system
info system
print "$(fx[506])"
4.875017976200568981
print "$(fy[506])"
12.872137313691236926
print "$(fz[506])"
8.7561469028201148745
info system
info system
print "$(fx[507])"
-1.1858010427955827382
print "$(fy[507])"
-6.1241182571229551002
print "$(fz[507])"
0.52186138480089061531
info system
info system
print "$(fx[508])"
-16.256565465577619278
print "$(fy[508])"
-3.1307783623777827309
print "$(fz[508])"
2.9589284322048823306
info system
info system
print "$(fx[509])"
2.1072591191486642614
print "$(fy[509])"
-1.2174042881462232568
print "$(fz[509])"
-1.3141684426464577129
info system
info system
print "$(fx[510])"
6.0367038937704844415
print "$(fy[510])"
-2.8876274634295318045
print "$(fz[510])"
6.9213848924463521328
info system
info system
print "$(fx[511])"
-1.7835112308127527569
print "$(fy[511])"
-2.5463546502989196085
print "$(fz[511])"
-1.5256783823129704825
info system
info system
print "$(fx[512])"
5.9722642651501747224
print "$(fy[512])"
2.217740523106708217
print "$(fz[512])"
-3.5588238266504257368
info system
info system
print "$(fx[513])"
-4.7869151622919758893
print "$(fy[513])"
3.9868680625842967125
print "$(fz[513])"
6.1030977668516976919
info system
info system
print "$(fx[514])"
2.175388938975159725
print "$(fy[514])"
-2.8713880924016774721
print "$(fz[514])"
11.328329158587125747
info system
info system
print "$(fx[515])"
-6.0490540409971513824
print "$(fy[515])"
4.755407258844142504
print "$(fz[515])"
-0.36879831144668434595
info system
info system
print "$(fx[516])"
-0.51839553406097071964
print "$(fy[516])"
6.1792071635617631387
print "$(fz[516])"
-3.7033919455385593267
info system
info system
print "$(fx[517])"
-3.1449876570515087337
print "$(fy[517])"
-1.0541837023859510492
print "$(fz[517])"
-9.1710158389136058332
info system
info system
print "$(fx[518])"
-4.0472697022611257012
print "$(fy[518])"
3.4291928651153797958
print "$(fz[518])"
7.1963254767602871098
info system
info system
print "$(fx[519])"
11.348865284137270137
[...]
print "$(fx[1158])"
-11.950464050763160984
print "$(fy[1158])"
-13.081380424752707015
print "$(fz[1158])"
3.4311148564595859156
info system
info system
print "$(fx[1159])"
1.9794589687059565009
print "$(fy[1159])"
-1.4271810979933809982
print "$(fz[1159])"
0.66858823537213640797
info system
info system
print "$(fx[1160])"
-1.2439824863969275448
print "$(fy[1160])"
3.6645890842436861234
print "$(fz[1160])"
-2.253529815317303342
info system
info system
print "$(fx[1161])"
4.3424932719151634331
print "$(fy[1161])"
6.2894096576676830068
print "$(fz[1161])"
2.7332517939513820693
info system
info system
print "$(fx[1162])"
0.30961781163843415943
print "$(fy[1162])"
-1.0657242367504682345
print "$(fz[1162])"
-2.3770794441648241957
info system
info system
print "$(fx[1163])"
-2.4266425283711758887
print "$(fy[1163])"
-2.6455337844938506819
print "$(fz[1163])"
-1.929972876652794822
info system
info system
print "$(fx[1164])"
7.7427518604959653103
print "$(fy[1164])"
1.2887497739736946123
print "$(fz[1164])"
-5.9585496938567450442
info system
info system
print "$(fx[1165])"
-3.6993241335664635017
print "$(fy[1165])"
0.62478159632777163779
print "$(fz[1165])"
2.6375387193568831101
info system
info system
print "$(fx[1166])"
-3.4450661675555700469
print "$(fy[1166])"
-1.8109508204247828367
print "$(fz[1166])"
1.3613396483757911337
info system
info system
print "$(fx[1167])"
7.4672219846530492049
print "$(fy[1167])"
24.01795428570785873
print "$(fz[1167])"
-16.396922529774201394
info system
info system
print "$(fx[1168])"
-1.6846380914055849587
print "$(fy[1168])"
-23.203202910557916283
print "$(fz[1168])"
13.511530461874896147
info system
info system
print "$(fx[1169])"
-10.096476901358748535
print "$(fy[1169])"
-13.711046523841751821
print "$(fz[1169])"
11.903139588331965726
info system
info system
print "$(fx[1170])"
8.1684904659567081353
print "$(fy[1170])"
44.423609361347857316
print "$(fz[1170])"
42.24426503655190146
info system
info system
print "$(fx[1171])"
-8.7019891546067160704
print "$(fy[1171])"
-19.924593179596310932
print "$(fz[1171])"
-27.035567493327267385
info system
info system
print "$(fx[1172])"
-0.20921032207182432838
print "$(fy[1172])"
-22.0428042538190887
print "$(fz[1172])"
-13.462369602356350384
info system
info system
print "$(fx[1173])"
10.979725689046878401
print "$(fy[1173])"
-1.2400889959175027677
print "$(fz[1173])"
5.6609231018417354164
info system
info system
print "$(fx[1174])"
-16.527260774977538205
print "$(fy[1174])"
1.7731225222327808844
print "$(fz[1174])"
-2.4019034717802196788
info system
info system
print "$(fx[1175])"
-2.803451977739877865
print "$(fy[1175])"
-9.7927330429520242916
print "$(fz[1175])"
1.7085978617580859229
info system
info system
print "$(fx[1176])"
28.867034136030433444
print "$(fy[1176])"
-5.69099121087564086
print "$(fz[1176])"
101.99988716241050213
info system
info system
print "$(fx[1177])"
-7.2493912007735827885
print "$(fy[1177])"
7.8880445669987704349
print "$(fz[1177])"
-57.534204601519725486
info system
info system
print "$(fx[1178])"
-13.15488690581797826
print "$(fy[1178])"
10.839392120553075216
print "$(fz[1178])"
-28.224986984545921587
info system
info system
print "$(fx[1179])"
-5.0580430689236344222
print "$(fy[1179])"
16.652077730251676257
print "$(fz[1179])"
5.8855200720602631748
info system
info system
print "$(fx[1180])"
1.1870137326068901373
print "$(fy[1180])"
3.4659230837174805906
print "$(fz[1180])"
-4.5637990355884738847
info system
info system
print "$(fx[1181])"
5.4363929261488053157
print "$(fy[1181])"
-8.3184188382979247223
print "$(fz[1181])"
-6.3411214890964640034
info system
info system
print "$(fx[1182])"
5.5237291739785732148
print "$(fy[1182])"
18.611676819939329874
print "$(fz[1182])"
-2.9979136363031564372
info system
info system
print "$(fx[1183])"
-11.744440943951492073
print "$(fy[1183])"
1.2045940929310432477
print "$(fz[1183])"
3.6190118981823697908
info system
info system
print "$(fx[1184])"
4.4048241734138731118
print "$(fy[1184])"
-15.589485205585532412
print "$(fz[1184])"
0.7600178083393780426
info system
info system
print "$(fx[1185])"
-2.6945417408017742211
print "$(fy[1185])"
-9.1644702642065318798
print "$(fz[1185])"
1.3966821640494881951
info system
info system
print "$(fx[1186])"
1.8523275110351944406
print "$(fy[1186])"
4.6121341630276795343
print "$(fz[1186])"
-1.4461801251166992444
info system
info system
print "$(fx[1187])"
2.3867863702450282659
print "$(fy[1187])"
4.0844578340291697316
print "$(fz[1187])"
-0.67542161979685977347
info system
info system
print "$(fx[1188])"
-9.6271958241581661042
print "$(fy[1188])"
13.181399127656987957
print "$(fz[1188])"
2.5833475360325257597
info system
info system
print "$(fx[1189])"
-9.4221652156977970805
print "$(fy[1189])"
-3.6762134871043841144
print "$(fz[1189])"
-3.4027835040233185282
info system
info system
print "$(fx[1190])"
2.8880705886575803731
print "$(fy[1190])"
-9.3537163162944558792
print "$(fz[1190])"
3.4086286115949486764
info system
info system
print "$(fx[1191])"
-1.8819188845767762519
print "$(fy[1191])"
29.415346788606434814
print "$(fz[1191])"
16.863129989223708094
info system
info system
print "$(fx[1192])"
-5.6150620708186611552
print "$(fy[1192])"
-10.549334340337701121
print "$(fz[1192])"
-1.6608931142905380973
info system
info system
print "$(fx[1193])"
1.6506819205886251734
print "$(fy[1193])"
-16.495612312920108877
print "$(fz[1193])"
-16.782160705631088859
info system
info system
print "$(fx[1194])"
9.1998438658815064883
print "$(fy[1194])"
4.0153291486703368562
print "$(fz[1194])"
-7.8040597559206004163
info system
info system
print "$(fx[1195])"
-1.0687523921888528733
print "$(fy[1195])"
-2.6088494531223771489
print "$(fz[1195])"
1.769312498313654336
info system
info system
print "$(fx[1196])"
0.14748577604270346475
print "$(fy[1196])"
-1.2990369642951953288
print "$(fz[1196])"
4.1920689162813093986
info system
info system
print "$(fx[1197])"
-3.2701687637909047091
print "$(fy[1197])"
5.4571488103814553838
print "$(fz[1197])"
-18.057414712734065176
info system
info system
print "$(fx[1198])"
-1.3855566145070630224
print "$(fy[1198])"
0.072906996104046023488
print "$(fz[1198])"
3.8063350316772019966
info system
info system
print "$(fx[1199])"
-0.90558094404571387592
print "$(fy[1199])"
-4.9832179325435719264
print "$(fz[1199])"
0.64650107531575196074
info system
info system
print "$(fx[1200])"
5.4620589175822713557
print "$(fy[1200])"
-2.5748710231926610348
print "$(fz[1200])"
0.93611198378786308893
info system
info system
print "$(fx[1201])"
-1.9787250799764217746
print "$(fy[1201])"
2.1094819461987230902
print "$(fz[1201])"
-2.3643464653680101861
info system
info system
print "$(fx[1202])"
-2.0780349168513700953
print "$(fy[1202])"
-2.8767274701305254325
print "$(fz[1202])"
1.5842287255209672736
info system
info system
print "$(fx[1203])"
44.559098063368928422
print "$(fy[1203])"
59.230601854387906258
print "$(fz[1203])"
-46.043335234464400685
info system
info system
print "$(fx[1204])"
-21.877202698697477246
print "$(fy[1204])"
-28.865628939408008335
print "$(fz[1204])"
21.767640450102430094
info system
info system
print "$(fx[1205])"
-16.628529634569787277
print "$(fy[1205])"
-28.559417211146268301
print "$(fz[1205])"
21.558522215510652842
info system
info system
print "$(fx[1206])"
11.64202651134684352
print "$(fy[1206])"
18.807008826182681105
print "$(fz[1206])"
4.8306578007189377999
info system
info system
print "$(fx[1207])"
-13.755346452692350567
print "$(fy[1207])"
-7.233129619645373154
print "$(fz[1207])"
0.1931192674337557369
info system
info system
print "$(fx[1208])"
-4.7923245965268250757
print "$(fy[1208])"
-6.173729028249008266
print "$(fz[1208])"
-3.1169052661070772992
info system
info system
print "$(fx[1209])"
17.174542706895447708
print "$(fy[1209])"
9.7344888042430106623
print "$(fz[1209])"
-0.53101568952325550743
info system
info system
print "$(fx[1210])"
-19.767005531743688351
print "$(fy[1210])"
4.0991107437423108806
print "$(fz[1210])"
-1.1652518677684480242
info system
info system
print "$(fx[1211])"
6.6100884574894323009
print "$(fy[1211])"
-19.386465707869419361
print "$(fz[1211])"
2.5529466439215711127
info system
info system
print "$(fx[1212])"
0.019274742749729067981
print "$(fy[1212])"
-7.2346820202222659191
print "$(fz[1212])"
5.8058251614549352126
info system
info system
print "$(fx[1213])"
0.46842458988268576014
print "$(fy[1213])"
1.4029597073455497558
print "$(fz[1213])"
-1.2311004525981483759
info system
info system
print "$(fx[1214])"
-1.0908204304148947372
print "$(fy[1214])"
6.2617698108639041621
print "$(fz[1214])"
2.1773378142648085465
info system
info system
print "$(fx[1215])"
-0.74320845774258614824
print "$(fy[1215])"
-14.226598825495328171
print "$(fz[1215])"
6.3812053003809090512
info system
info system
print "$(fx[1216])"
-6.3489579320489886172
print "$(fy[1216])"
3.8097113540961990985
print "$(fz[1216])"
-5.7109777704042805624
info system
info system
print "$(fx[1217])"
-0.87299265202265052821
print "$(fy[1217])"
3.4201803050240879855
print "$(fz[1217])"
-2.643602004880407641
info system
info system
print "$(fx[1218])"
20.451355923452414487
print "$(fy[1218])"
25.541491773379799923
print "$(fz[1218])"
-6.1086429172345466654
info system
info system
print "$(fx[1219])"
-7.5394213157452476537
print "$(fy[1219])"
-5.5965581138700546404
print "$(fz[1219])"
0.17403342066527835441
info system
info system
print "$(fx[1220])"
-5.8967504334247147213
print "$(fy[1220])"
-16.475863252700349904
print "$(fz[1220])"
-0.74771831936024213405
info system
info system
print "$(fx[1221])"
11.039156586298087603
print "$(fy[1221])"
6.1317876675110323248
print "$(fz[1221])"
-3.0190508129586275388
info system
info system
print "$(fx[1222])"
-4.950201575642556584
print "$(fy[1222])"
-0.23860580175266057901
print "$(fz[1222])"
1.8451364268563477111
info system
info system
print "$(fx[1223])"
-3.6333003537058101706
print "$(fy[1223])"
-7.775771530362131756
print "$(fz[1223])"
1.2837568370867600276
info system
info system
print "$(fx[1224])"
26.459440642042373781
print "$(fy[1224])"
33.337277994099025591
print "$(fz[1224])"
-8.3929280386664242286
info system
info system
print "$(fx[1225])"
-12.650407737563355681
print "$(fy[1225])"
-11.652088646602933864
print "$(fz[1225])"
3.1563869413608736103
info system
info system
print "$(fx[1226])"
-4.2407556107263086886
print "$(fy[1226])"
-22.958600648028756552
print "$(fz[1226])"
7.9223546397585158374
info system
info system
print "$(fx[1227])"
2.1711982743963580411
print "$(fy[1227])"
4.5651304893537734131
print "$(fz[1227])"
2.5923047341122078535
info system
info system
print "$(fx[1228])"
0.64932072142550723015
print "$(fy[1228])"
-0.1970622890038970787
print "$(fz[1228])"
-1.8229536825033727521
info system
info system
print "$(fx[1229])"
0.74463247679403399282
print "$(fy[1229])"
-1.6697995133853686944
print "$(fz[1229])"
1.9625207086852847205
info system
info system
print "$(fx[1230])"
15.456344057929571889
print "$(fy[1230])"
39.311532269698190589
print "$(fz[1230])"
-12.72847290473598747
info system
info system
print "$(fx[1231])"
-6.331951318347101676
print "$(fy[1231])"
-15.815464704401803075
print "$(fz[1231])"
6.0206901519335440653
info system
info system
print "$(fx[1232])"
-7.5384532303049054391
print "$(fy[1232])"
-18.489901912782485738
print "$(fz[1232])"
3.3309368743779055322
info system
info system
print "$(fx[1233])"
-0.85036391369633979043
print "$(fy[1233])"
20.778895135149802798
print "$(fz[1233])"
-1.3501539200448993139
info system
info system
print "$(fx[1234])"
-4.2425069752032582571
print "$(fy[1234])"
-3.233386423131043852
print "$(fz[1234])"
4.0564604117956442053
info system
info system
print "$(fx[1235])"
5.3857306814793917127
print "$(fy[1235])"
-12.58196448637928988
print "$(fz[1235])"
-4.390361957800115178
info system
info system
print "$(fx[1236])"
6.9113210191059284426
print "$(fy[1236])"
22.95421506461127592
print "$(fz[1236])"
-4.062561502086104781
info system
info system
print "$(fx[1237])"
-10.109418069923314931
print "$(fy[1237])"
-7.2680025909548700014
print "$(fz[1237])"
3.0073932157299085866
info system
info system
print "$(fx[1238])"
-5.8638996593255425793
print "$(fy[1238])"
-9.1495266501013201577
print "$(fz[1238])"
0.15073570319328849498
info system
info system
print "$(fx[1239])"
7.7640020669763289973
print "$(fy[1239])"
10.694380221203241277
print "$(fz[1239])"
2.3590701573215433484
info system
info system
print "$(fx[1240])"
-1.4967409148803980656
print "$(fy[1240])"
-0.54049260935170939657
print "$(fz[1240])"
-1.393831350067250785
info system
info system
print "$(fx[1241])"
-2.3543940187881426951
print "$(fy[1241])"
-0.94876809981074705647
print "$(fz[1241])"
-0.1055043972891538534
info system
info system
print "$(fx[1242])"
-11.484160581465603812
print "$(fy[1242])"
-11.91382973096944653
print "$(fz[1242])"
1.6462011852574085502
info system
info system
print "$(fx[1243])"
3.0548714358247073264
print "$(fy[1243])"
1.4139276662747448654
print "$(fz[1243])"
-4.7668658856330345941
info system
info system
print "$(fx[1244])"
11.926684468291648855
print "$(fy[1244])"
3.7941225383390158044
print "$(fz[1244])"
3.9716376619595021857
info system
info system
print "$(fx[1245])"
-672.80787053421840938
print "$(fy[1245])"
202.6711961591027773
print "$(fz[1245])"
231.3340509728615757
info system
info system
print "$(fx[1246])"
855.12294928485619039
print "$(fy[1246])"
-612.79923701094162425
print "$(fz[1246])"
-146.22491838774828921
info system
info system
print "$(fx[1247])"
-182.99385884662942203
print "$(fy[1247])"
410.12620710973800442
print "$(fz[1247])"
-87.264407087378060623
info system
info system
print "$(fx[1248])"
14.49134920274586058
print "$(fy[1248])"
4.0635037356424623667
print "$(fz[1248])"
-4.9487605700215446802
info system
info system
print "$(fx[1249])"
-7.1650371196648219296
print "$(fy[1249])"
-0.93178725618123547925
print "$(fz[1249])"
1.6389777893890300486
info system
info system
print "$(fx[1250])"
-0.56495241929637773914
print "$(fy[1250])"
-7.9698494726674935507
print "$(fz[1250])"
5.2341307940935930532
info system
info system
print "$(fx[1251])"
8.9288097451247825376
print "$(fy[1251])"
5.1358209383337447562
print "$(fz[1251])"
18.730328365226569076
info system
info system
print "$(fx[1252])"
-4.4461031541496138786
print "$(fy[1252])"
1.7321767638963434521
print "$(fz[1252])"
-6.8174553254632375143
info system
info system
print "$(fx[1253])"
-0.28132394955090544997
print "$(fy[1253])"
-3.7290840420492084029
print "$(fz[1253])"
-5.5212389574010094506
info system
info system
print "$(fx[1254])"
-1.5754441091097062255
print "$(fy[1254])"
13.966735735517715966
print "$(fz[1254])"
-3.8990014501483747367
info system
info system
print "$(fx[1255])"
0.40602706407216038187
print "$(fy[1255])"
3.7349833933810332454
print "$(fz[1255])"
-0.19474067062898664515
info system
info system
print "$(fx[1256])"
0.59024609471760403068
print "$(fy[1256])"
-5.6055221080667188005
print "$(fz[1256])"
-3.3764511347562957688
info system
info system
print "$(fx[1257])"
35.351957906081665328
print "$(fy[1257])"
28.487098003368657828
print "$(fz[1257])"
0.61627421991072006691
info system
info system
print "$(fx[1258])"
-13.934557455270313753
print "$(fy[1258])"
-12.112539207608815417
print "$(fz[1258])"
3.6846456088717638444
info system
info system
print "$(fx[1259])"
-9.0093639043600415306
print "$(fy[1259])"
-10.08539862489463701
print "$(fz[1259])"
1.3337955464401980432
info system
info system
print "$(fx[1260])"
7.8847954621502847061
print "$(fy[1260])"
11.864398012594886467
print "$(fz[1260])"
-5.3663733742257502257
info system
info system
print "$(fx[1261])"
-5.6747781599716997647
print "$(fy[1261])"
1.1233327656877860612
print "$(fz[1261])"
3.2998969675432574533
info system
info system
print "$(fx[1262])"
4.1421506106399119673
print "$(fy[1262])"
-5.1811505685353100858
print "$(fz[1262])"
1.5386558456250667426
info system
info system
print "$(fx[1263])"
30.204337749321808815
print "$(fy[1263])"
-147.35237623513614835
print "$(fz[1263])"
-65.379110085488150617
info system
info system
print "$(fx[1264])"
88.74596877199648759
print "$(fy[1264])"
-81.737242118380663669
print "$(fz[1264])"
-16.880916993121129366
info system
info system
print "$(fx[1265])"
-121.33956839807036943
print "$(fy[1265])"
232.44549174318032669
print "$(fz[1265])"
71.932858981129328413
info system
info system
print "$(fx[1266])"
11.795989228713038344
print "$(fy[1266])"
24.931447223860196516
print "$(fz[1266])"
-5.512995015755079109
info system
info system
print "$(fx[1267])"
-10.749561196736506119
print "$(fy[1267])"
-4.7181735298049343186
print "$(fz[1267])"
5.3145841270777189891
info system
info system
print "$(fx[1268])"
-4.2144211935331474805
print "$(fy[1268])"
-24.465902459584125239
print "$(fz[1268])"
1.6606067536719697486
info system
info system
print "$(fx[1269])"
6.4409186072335575801
print "$(fy[1269])"
8.1038363337726035951
print "$(fz[1269])"
0.99049506205546133941
info system
info system
print "$(fx[1270])"
-2.4489071644845732401
print "$(fy[1270])"
-4.9917038290948729795
print "$(fz[1270])"
-2.7410736465680622942
info system
info system
print "$(fx[1271])"
-0.0088662352510909814285
print "$(fy[1271])"
-6.3335159975523493969
print "$(fz[1271])"
2.6698584802781821779
info system
info system
print "$(fx[1272])"
-0.6160049043742199526
print "$(fy[1272])"
5.2784998629642725376
print "$(fz[1272])"
-1.225704329592560482
info system
info system
print "$(fx[1273])"
-2.652900289906662934
print "$(fy[1273])"
-2.0607140433600705798
print "$(fz[1273])"
1.7284712764958327647
info system
info system
print "$(fx[1274])"
4.221163219578700776
print "$(fy[1274])"
-1.3477447689575785539
print "$(fz[1274])"
3.4927690457958009418
info system
info system
print "$(fx[1275])"
-3.3947610451838121648
print "$(fy[1275])"
13.032472108928477184
print "$(fz[1275])"
-1.6441410959669027214
info system
info system
print "$(fx[1276])"
-6.3475845537253352546
print "$(fy[1276])"
-6.1519819274942246778
print "$(fz[1276])"
1.8481535259150025929
info system
info system
print "$(fx[1277])"
2.9229769815919857123
print "$(fy[1277])"
-5.5309452497982469765
print "$(fz[1277])"
-0.51871154360483728851
info system
info system
print "$(fx[1278])"
26.578405738309307083
print "$(fy[1278])"
35.083200704271263248
print "$(fz[1278])"
40.957521153725004126
info system
info system
print "$(fx[1279])"
-15.510925764319781095
print "$(fy[1279])"
-21.710845183968970673
print "$(fz[1279])"
-19.680834049831062771
info system
info system
print "$(fx[1280])"
-13.688082870286740089
print "$(fy[1280])"
-20.287368154249655561
print "$(fz[1280])"
-22.823809192141965241
info system
info system
print "$(fx[1281])"
11.275004891902646875
print "$(fy[1281])"
15.33665674075847285
print "$(fz[1281])"
-4.4637157248043219937
info system
info system
print "$(fx[1282])"
-6.587158811130520597
print "$(fy[1282])"
-6.2674666056375132328
print "$(fz[1282])"
0.59810175728398973227
info system
info system
print "$(fx[1283])"
-4.142241532719943109
print "$(fy[1283])"
-5.3114485446440768968
print "$(fz[1283])"
0.0091264305907455198219
info system
info system
print "$(fx[1284])"
-6.2486780869866400678
print "$(fy[1284])"
5.8224338715037742276
print "$(fz[1284])"
-2.1810272418212304224
info system
info system
print "$(fx[1285])"
-1.7024233542443705236
print "$(fy[1285])"
-3.8240936213453200487
print "$(fz[1285])"
0.6238600192208563211
info system
info system
print "$(fx[1286])"
0.12374187775510607501
print "$(fy[1286])"
-0.76447041639682555836
print "$(fz[1286])"
-2.5109427088391953475
info system
info system
print "$(fx[1287])"
-1.3727537134206160285
print "$(fy[1287])"
0.36345386644264432441
print "$(fz[1287])"
-4.3032801638852111736
info system
info system
print "$(fx[1288])"
-0.32148945158271652334
print "$(fy[1288])"
-0.90327407072293397494
print "$(fz[1288])"
-1.553330652099409015
info system
info system
print "$(fx[1289])"
1.6182247190261671577
print "$(fy[1289])"
2.9884248050824568921
print "$(fz[1289])"
4.1339674613616859133
