LAMMPS (26 Jan 2017)
units real
dimension 3
atom_style full
pair_style lj/charmm/coul/long 8.0 10.0 10.0
bond_style harmonic
angle_style harmonic
dihedral_style harmonic
improper_style harmonic
kspace_style pppm 0.0001
read_data /var/folders/l9/th_rqp090gg3375t46j58vsm0000gq/T/tmpU9xRGE/data.lammps_mol
  orthogonal box = (-53.255 -40.2647 -34.146) to (58.8446 79.2298 78.3984)
  1 by 1 by 1 MPI processor grid
  reading atoms ...
  148 atoms
  scanning bonds ...
  4 = max bonds/atom
  scanning angles ...
  6 = max angles/atom
  scanning dihedrals ...
  28 = max dihedrals/atom
  reading bonds ...
  149 bonds
  reading angles ...
  274 angles
  reading dihedrals ...
  650 dihedrals
  4 = max # of 1-2 neighbors
  9 = max # of 1-3 neighbors
  19 = max # of 1-4 neighbors
  21 = max # of special neighbors
