LAMMPS (17 Nov 2016)
units real
atom_style full
pair_style lj/charmm/coul/long 8.0 10.0 10.0
bond_style harmonic
angle_style harmonic
dihedral_style charmm
improper_style harmonic
kspace_style pppm 0.0001
read_data /var/folders/l9/th_rqp090gg3375t46j58vsm0000gq/T/tmpvO1faK/data.lammps_molecule
  orthogonal box = (-7.11899 -0.265 7.09693) to (29.2502 30.5096 37.4841)
  1 by 1 by 1 MPI processor grid
  reading atoms ...
  1289 atoms
  reading velocities ...
  1289 velocities
  scanning bonds ...
  4 = max bonds/atom
  scanning angles ...
  6 = max angles/atom
  scanning dihedrals ...
  28 = max dihedrals/atom
  reading bonds ...
  1300 bonds
  reading angles ...
  1862 angles
  reading dihedrals ...
  4484 dihedrals
  4 = max # of 1-2 neighbors
  9 = max # of 1-3 neighbors
  19 = max # of 1-4 neighbors
  21 = max # of special neighbors
info system
info system
print "$(x[1013])"
8.8770000000000006679
print "$(y[1013])"
11.102999999999999758
print "$(z[1013])"
14.169000000000000483
info system
info system
print "$(vx[1013])"
0
print "$(vy[1013])"
0
print "$(vz[1013])"
0
info system
info system
print "$(fx[1013])"
8.4879833792737108472e-314
print "$(fy[1013])"
9.4428812719891132698e-312
print "$(fz[1013])"
9.4216613119006310485e-312
neighbor 2.0 bin
timestep 1.0
thermo_style custom step temp pe etotal
thermo 10
fix 1 all nvt temp 300.0 300.0 100.0
group hbonds type 4 16 10 5 11 2 8 13 12
689 atoms in group hbonds
fix 2 hbonds rattle 0.0001 20 0 t 5 6 m 1.0 a 31
  92 = # of size 2 clusters
  0 = # of size 3 clusters
  0 = # of size 4 clusters
  0 = # of frozen angles
neighbor 2.0 bin
timestep 1.0
thermo_style custom step temp pe etotal
thermo 10
fix 1 all nvt temp 300.0 300.0 100.0
group hbonds type 4 16 10 5 11 2 8 13 12
689 atoms in group hbonds
fix 2 hbonds rattle 0.0001 20 0 t 5 6 m 1.0 a 31
  92 = # of size 2 clusters
  0 = # of size 3 clusters
  0 = # of size 4 clusters
  0 = # of frozen angles
neighbor 2.0 bin
timestep 1.0
thermo_style custom step temp pe etotal
thermo 10
fix 1 all nvt temp 300.0 300.0 100.0
group hbonds type 4 16 10 5 11 2 8 13 12
689 atoms in group hbonds
fix 2 hbonds rattle 0.0001 20 0 t 5 6 m 1.0 a 31
  92 = # of size 2 clusters
  0 = # of size 3 clusters
  0 = # of size 4 clusters
  0 = # of frozen angles
run 200
PPPM initialization ...
WARNING: System is not charge neutral, net charge = -2 (../kspace.cpp:298)
WARNING: Using 12-bit tables for long-range coulomb (../kspace.cpp:317)
  G vector (1/distance) = 0.243816
  grid = 15 15 12
  stencil order = 5
  estimated absolute RMS force accuracy = 0.0251739
  estimated relative force accuracy = 7.58106e-05
  using double precision FFTs
  3d grid and FFT values/proc = 6800 2700
Neighbor list info ...
  1 neighbor list requests
  update every 1 steps, delay 10 steps, check yes
  max neighbors/atom: 2000, page size: 100000
  master list distance cutoff = 12
  ghost atom cutoff = 12
  binsize = 6 -> bins = 7 6 6
Memory usage per processor = 19.8786 Mbytes
Step Temp PotEng TotEng 
       0            0   -4179.4486   -4179.4486 
      10    144.04034   -4719.4291   -4179.5844 
      20    277.46019   -5205.5623    -4165.677 
      30    318.82877   -5344.9672   -4150.0378 
      40    299.26578   -5262.1432   -4140.5334 
      50    282.67358   -5193.8539   -4134.4296 
      60    281.08847   -5181.8761   -4128.3925 
      70    290.65138    -5211.586   -4122.2619 
      80    298.87635   -5236.4983    -4116.348 
      90    297.86912   -5226.2928   -4109.9175 
     100    302.43081    -5238.005   -4104.5331 
     110    317.75694   -5290.1682   -4099.2559 
     120    313.02883   -5268.8831   -4095.6912 
     130    296.83795   -5204.5817   -4092.0711 
     140    313.75478   -5266.4548   -4090.5421 
     150    322.05824   -5295.3643   -4088.3312 
     160    323.17313   -5299.7748   -4088.5633 
     170    317.07656   -5278.2833    -4089.921 
     180    320.49039   -5294.5648   -4093.4079 
     190    316.16636   -5283.0967   -4098.1457 
     200    306.23636   -5251.6167   -4103.8821 
Loop time of 1.39493 on 1 procs for 200 steps with 1289 atoms

Performance: 12.388 ns/day, 1.937 hours/ns, 143.377 timesteps/s
99.9% CPU use with 1 MPI tasks x no OpenMP threads

MPI task timing breakdown:
Section |  min time  |  avg time  |  max time  |%varavg| %total
---------------------------------------------------------------
Pair    | 0.95043    | 0.95043    | 0.95043    |   0.0 | 68.13
Bond    | 0.086209   | 0.086209   | 0.086209   |   0.0 |  6.18
Kspace  | 0.2257     | 0.2257     | 0.2257     |   0.0 | 16.18
Neigh   | 0.11851    | 0.11851    | 0.11851    |   0.0 |  8.50
Comm    | 0.0045416  | 0.0045416  | 0.0045416  |   0.0 |  0.33
Output  | 0.00032425 | 0.00032425 | 0.00032425 |   0.0 |  0.02
Modify  | 0.0082233  | 0.0082233  | 0.0082233  |   0.0 |  0.59
Other   |            | 0.0009899  |            |       |  0.07

Nlocal:    1289 ave 1289 max 1289 min
Histogram: 1 0 0 0 0 0 0 0 0 0
Nghost:    3661 ave 3661 max 3661 min
Histogram: 1 0 0 0 0 0 0 0 0 0
Neighs:    271246 ave 271246 max 271246 min
Histogram: 1 0 0 0 0 0 0 0 0 0

Total # of neighbors = 271246
Ave neighs/atom = 210.431
Ave special neighs/atom = 9.0706
Neighbor list builds = 19
Dangerous builds = 18
info system
info system
print "$(x[1013])"
9.1949407585949192168
print "$(y[1013])"
11.451470715040096948
print "$(z[1013])"
15.346603769920546867
info system
info system
print "$(vx[1013])"
-0.0039725141211885799108
print "$(vy[1013])"
-0.0015766077350572761662
print "$(vz[1013])"
-0.010748494668691991466
info system
info system
print "$(fx[1013])"
0.98838425169693155947
print "$(fy[1013])"
-14.583172882856926478
print "$(fz[1013])"
8.9072082812443245103
Total wall time: 1:43:07
